ITEM: TIMESTEP
0
ITEM: NUMBER OF ATOMS
96
ITEM: BOX BOUNDS pp pp pp
0.0000000000000000e+00 1.0129447365724008e+01
0.0000000000000000e+00 1.0129447365724008e+01
0.0000000000000000e+00 1.0129447365724008e+01
ITEM: ATOMS id element x y z q c_myChi fx fy fz
1 Hf 0 0 0 0.749109 0.00126152 -0.0501853 -0.153847 0.630401
2 Hf 3e-16 3e-16 5.06472 2.68178 -2.02508 -0.000428696 -0.166542 1.56235
3 Hf 0 5.06472 4.93038e-32 0.615188 0.15319 -0.0223526 0.16232 0.517848
4 Hf 0 5.06472 5.06472 2.69886 -1.9961 0.0814009 0.140152 1.60059
5 Hf 5.06472 1.64888e-48 0 0.596841 0.161257 0.142367 -0.0900605 0.457209
6 Hf 5.06472 3e-16 5.06472 2.76032 -2.08209 0.120984 -0.113008 1.5793
7 Hf 5.06472 5.06472 0 0.694615 0.0649611 0.0862069 0.180781 0.500642
8 Hf 5.06472 5.06472 5.06472 2.67933 -1.97433 0.0663095 0.123561 1.60186
9 Hf 0 2.53236 2.53236 1.82446 -1.14942 0.137831 0.0366204 1.00789
10 Hf 3e-16 2.53236 7.59709 3.60838 -2.90341 0.016963 0.0160112 1.87165
11 Hf 0 7.59709 2.53236 1.56217 -0.844355 -0.102384 0.00239595 1.02819
12 Hf 1.22908e-33 7.59709 7.59709 3.66361 -2.9533 -0.183973 -0.10152 1.82946
13 Hf 5.06472 2.53236 2.53236 1.80553 -1.06784 -0.0374428 0.117601 0.981408
14 Hf 5.06472 2.53236 7.59709 3.49541 -2.72924 0.0198991 0.0274682 1.80774
15 Hf 5.06472 7.59709 2.53236 1.68466 -0.916352 0.267209 -0.00694016 1.08571
16 Hf 5.06472 7.59709 7.59709 3.65824 -2.97102 0.068728 -0.180493 1.9652
17 Hf 2.53236 1.5e-16 2.53236 1.72862 -1.04436 0.135511 0.0287733 1.08797
18 Hf 2.53236 4.5e-16 7.59709 3.66603 -3.13758 0.166823 -0.117213 1.76937
19 Hf 2.53236 5.06472 2.53236 1.52791 -0.782956 0.253262 -0.112038 0.997321
20 Hf 2.53236 5.06472 7.59709 3.7197 -2.98542 0.16942 -0.109021 1.86631
21 Hf 7.59709 1.5e-16 2.53236 1.59894 -0.883831 -0.0358745 -0.163158 1.05256
22 Hf 7.59709 4.5e-16 7.59709 3.60211 -2.85176 -0.119618 -0.0983531 1.83752
23 Hf 7.59709 5.06472 2.53236 1.82956 -1.07282 -0.103192 0.184616 1.02658
24 Hf 7.59709 5.06472 7.59709 3.69463 -2.94364 -0.192685 0.100786 1.95383
25 Hf 2.53236 2.53236 0 0.637109 0.112994 0.148836 0.118023 0.5014
26 Hf 2.53236 2.53236 5.06472 2.7343 -2.02799 0.113726 0.0400842 1.49944
27 Hf 2.53236 7.59709 9.86076e-32 0.579221 0.187807 0.331349 -0.00226229 0.498136
28 Hf 2.53236 7.59709 5.06472 2.61031 -1.88902 0.156295 -0.0991352 1.5784
29 Hf 7.59709 2.53236 9.86076e-32 0.605099 0.153883 -0.00139774 0.00960528 0.417854
30 Hf 7.59709 2.53236 5.06472 2.78238 -2.07681 -0.028534 -0.0346056 1.55583
31 Hf 7.59709 7.59709 1.97215e-31 0.688887 0.06267 0.163875 -0.0889903 0.553577
32 Hf 7.59709 7.59709 5.06472 2.66018 -1.97538 0.1561 -0.0195373 1.51768
33 O 1.26618 1.26618 3.79854 -1.60709 2.52827 -0.0272901 -0.05568 -0.924697
34 O 1.26618 1.26618 8.86327 0.59103 0.172018 0.0853122 0.266602 0.311793
35 O 1.26618 6.3309 3.79854 -1.412 2.47082 -0.131638 -0.190253 -0.648387
36 O 1.26618 6.3309 8.86327 0.206525 0.515029 -0.15982 -0.0708884 0.07925
37 O 6.3309 1.26618 3.79854 -1.48066 2.43698 -0.246577 -0.128558 -0.76627
38 O 6.3309 1.26618 8.86327 0.290123 0.477273 -0.113104 0.119842 0.203309
39 O 6.3309 6.3309 3.79854 -1.62145 2.49352 -0.243786 -0.247896 -0.747225
40 O 6.3309 6.3309 8.86327 0.21837 0.553239 0.0788196 0.0507901 0.191017
41 O 1.26618 3.79854 3.79854 -1.56689 2.38729 -0.00627334 0.278663 -0.870556
42 O 1.26618 3.79854 8.86327 0.263257 0.501171 -0.0101854 -0.0710396 0.0645825
43 O 1.26618 8.86327 3.79854 -1.40432 2.27554 -0.141524 0.139898 -0.880416
44 O 1.26618 8.86327 8.86327 0.303478 0.440001 -0.195862 -0.0768424 0.0658087
45 O 6.3309 3.79854 3.79854 -1.53891 2.3956 -0.29536 0.0779794 -0.786433
46 O 6.3309 3.79854 8.86327 0.313857 0.45645 0.00178232 -0.0765756 0.127183
47 O 6.3309 8.86327 3.79854 -1.63835 2.494 -0.250868 0.149375 -0.933386
48 O 6.3309 8.86327 8.86327 0.366341 0.401889 -0.152443 0.0309508 -0.335778
49 O 1.26618 3.79854 1.26618 -2.67459 3.53125 -0.0264614 0.0400539 -1.33546
50 O 1.26618 3.79854 6.3309 -0.589191 1.49974 -0.129763 0.138023 -0.204225
51 O 1.26618 8.86327 1.26618 -2.48645 3.36694 -0.193364 0.105865 -1.33191
52 O 1.26618 8.86327 6.3309 -0.618047 1.43949 -0.228768 -0.00401778 -0.63224
53 O 6.3309 3.79854 1.26618 -2.54614 3.44504 -0.320041 0.00193532 -1.32969
54 O 6.3309 3.79854 6.3309 -0.670668 1.47761 -0.287404 0.111582 -0.612478
55 O 6.3309 8.86327 1.26618 -2.61052 3.46041 -0.334661 0.123166 -1.32987
56 O 6.3309 8.86327 6.3309 -0.671562 1.46752 -0.316303 -0.045743 -0.393082
57 O 1.26618 1.26618 1.26618 -2.56928 3.42086 -0.0151837 -0.062932 -1.39898
58 O 1.26618 1.26618 6.3309 -0.469284 1.2599 0.0379374 0.105525 -0.147373
59 O 1.26618 6.3309 1.26618 -2.49952 3.35481 -0.152419 -0.192395 -1.40172
60 O 1.26618 6.3309 6.3309 -0.647803 1.44342 -0.176187 -0.122607 -0.679413
61 O 6.3309 1.26618 1.26618 -2.55231 3.5423 -0.158622 -0.122905 -1.38747
62 O 6.3309 1.26618 6.3309 -0.659139 1.48367 -0.280933 -0.0105597 -0.495878
63 O 6.3309 6.3309 1.26618 -2.62367 3.49936 -0.195301 -0.281222 -1.37409
64 O 6.3309 6.3309 6.3309 -0.678042 1.47754 -0.0954859 -0.232737 -0.530625
65 O 3.79854 1.26618 1.26618 -2.6856 3.53941 -0.02221 -0.0451679 -1.35269
66 O 3.79854 1.26618 6.3309 -0.588722 1.38484 0.165404 0.269555 -0.181711
67 O 3.79854 6.3309 1.26618 -2.42195 3.59793 -0.00664943 -0.180449 -1.21397
68 O 3.79854 6.3309 6.3309 -0.693076 1.49199 0.0179247 -0.221344 -0.577799
69 O 8.86327 1.26618 1.26618 -2.49549 3.36451 0.0745558 -0.0731858 -1.17854
70 O 8.86327 1.26618 6.3309 -0.606437 1.44448 0.152257 -0.105691 -0.484866
71 O 8.86327 6.3309 1.26618 -2.50951 3.3874 0.185459 -0.0597794 -1.29683
72 O 8.86327 6.3309 6.3309 -0.720215 1.51694 0.163231 -0.178891 -0.320392
73 O 3.79854 3.79854 1.26618 -2.60813 3.46116 -0.0249873 -0.00845857 -1.29651
74 O 3.79854 3.79854 6.3309 -0.565304 1.37878 -0.0192872 -0.00725232 -0.75733
75 O 3.79854 8.86327 1.26618 -2.45144 3.31853 -0.119711 0.233644 -1.2667
76 O 3.79854 8.86327 6.3309 -0.634183 1.4508 0.00312773 -0.0256221 -0.700737
77 O 8.86327 3.79854 1.26618 -2.40933 3.26826 0.0926379 -0.0333722 -1.22765
78 O 8.86327 3.79854 6.3309 -0.520392 1.33118 0.238455 0.201813 -0.500237
79 O 8.86327 8.86327 1.26618 -2.45173 3.33398 0.161673 0.215424 -1.18122
80 O 8.86327 8.86327 6.3309 -0.646348 1.44235 0.145668 -0.125123 -0.3751
81 O 3.79854 3.79854 3.79854 -1.5373 2.37757 0.0518952 0.279767 -0.761661
82 O 3.79854 3.79854 8.86327 0.350503 0.415527 -0.265139 -0.00877332 0.0577893
83 O 3.79854 8.86327 3.79854 -1.58352 2.48171 0.0486383 0.238194 -0.744365
84 O 3.79854 8.86327 8.86327 0.306215 0.463132 0.0145935 -0.127579 0.265331
85 O 8.86327 3.79854 3.79854 -1.48841 2.31758 0.226904 0.140196 -0.643974
86 O 8.86327 3.79854 8.86327 0.447699 0.298817 -0.0585431 0.299722 0.104978
87 O 8.86327 8.86327 3.79854 -1.55756 2.41484 0.152228 0.23563 -0.768454
88 O 8.86327 8.86327 8.86327 0.297786 0.467174 0.18119 -0.024657 -0.129749
89 O 3.79854 1.26618 3.79854 -1.52556 2.34902 0.139801 -0.115719 -0.806057
90 O 3.79854 1.26618 8.86327 0.382449 0.384907 0.17634 0.117983 0.131666
91 O 3.79854 6.3309 3.79854 -1.5133 2.44704 0.136331 -0.223843 -0.657618
92 O 3.79854 6.3309 8.86327 0.311072 0.459309 -0.0247529 0.0713246 0.227601
93 O 8.86327 1.26618 3.79854 -1.35364 2.17894 0.0995479 -0.0647491 -0.842605
94 O 8.86327 1.26618 8.86327 0.485089 0.272605 0.10113 0.0525556 0.206872
95 O 8.86327 6.3309 3.79854 -1.49836 2.33203 0.266385 -0.178168 -0.757398
96 O 8.86327 6.3309 8.86327 0.324091 0.443766 0.302654 0.0725444 -0.276589
ITEM: TIMESTEP
1
ITEM: NUMBER OF ATOMS
96
ITEM: BOX BOUNDS pp pp pp
0.0000000000000000e+00 1.0129447365724008e+01
0.0000000000000000e+00 1.0129447365724008e+01
0.0000000000000000e+00 1.0129447365724008e+01
ITEM: ATOMS id element x y z q c_myChi fx fy fz
1 Hf 0 0 0 0.786591 -0.0442007 -0.0355027 -0.148033 0.602419
2 Hf 0 0 5.06472 2.69211 -1.96219 0.00278701 -0.0778904 1.66511
3 Hf 0 5.06472 4.93038e-32 0.65187 0.105866 -0.00566831 0.173925 0.521043
4 Hf 0 5.06472 5.06472 2.6829 -1.99097 0.0731483 0.125005 1.57999
5 Hf 5.06472 0 0 0.635501 0.11639 0.127637 -0.093456 0.446975
6 Hf 5.06472 0 5.06472 2.64831 -1.95222 0.160121 -0.0777548 1.58608
7 Hf 5.06472 5.06472 0 0.696388 0.0573832 0.0712981 0.190446 0.506722
8 Hf 5.06472 5.06472 5.06472 2.6477 -1.94626 0.082401 0.111399 1.58079
9 Hf 0 2.53236 2.53236 1.81804 -1.16649 0.102268 0.0251001 1.04003
10 Hf 3e-16 2.53236 7.59709 3.80066 -3.11373 0.0914113 0.0096601 1.76837
11 Hf 0 7.59709 2.53236 1.60397 -0.885276 -0.0914474 0.00334005 1.05978
12 Hf 0 7.59709 7.59709 3.64501 -2.93412 -0.171215 -0.0650004 1.79625
13 Hf 5.06472 2.53236 2.53236 1.81186 -1.09567 -0.0262996 0.114696 0.998947
14 Hf 5.06472 2.53236 7.59709 3.48907 -2.72853 0.0125359 -0.0359942 1.81296
15 Hf 5.06472 7.59709 2.53236 1.71925 -0.957618 0.258468 -0.0171834 1.08959
16 Hf 5.06472 7.59709 7.59709 3.62909 -2.94213 0.0644152 -0.15805 1.94017
17 Hf 2.53236 1.5e-16 2.53236 1.83403 -1.17692 0.123551 -0.0126015 1.03548
18 Hf 2.53236 0 7.59709 3.57783 -2.89739 0.14977 -0.0906195 1.69382
19 Hf 2.53236 5.06472 2.53236 1.52172 -0.796303 0.261071 -0.10205 0.989727
20 Hf 2.53236 5.06472 7.59709 3.71108 -2.99307 0.163731 -0.117156 1.87019
21 Hf 7.59709 0 2.53236 1.77294 -1.06571 -0.0501093 -0.173879 1.07163
22 Hf 7.59709 0 7.59709 3.51087 -2.75314 -0.104463 -0.0668733 1.71404
23 Hf 7.59709 5.06472 2.53236 1.83807 -1.09438 -0.112904 0.158478 1.0467
24 Hf 7.59709 5.06472 7.59709 3.68376 -2.94518 -0.200155 0.0924368 1.93136
25 Hf 2.53236 2.53236 0 0.666671 0.0764453 0.151308 0.116126 0.488162
26 Hf 2.53236 2.53236 5.06472 2.54725 -1.78914 0.0403889 0.0148749 1.48532
27 Hf 2.53236 7.59709 9.86076e-32 0.576729 0.182445 0.333772 -0.00332289 0.481047
28 Hf 2.53236 7.59709 5.06472 2.68567 -1.93293 0.135784 -0.0704921 1.60113
29 Hf 7.59709 2.53236 9.86076e-32 0.788102 -0.0451656 -0.0827565 0.0179072 0.508989
30 Hf 7.59709 2.53236 5.06472 2.55298 -1.8084 0.0116079 -0.161229 1.60881
31 Hf 7.59709 7.59709 1.97215e-31 0.687846 0.0555219 0.164123 -0.0967466 0.533329
32 Hf 7.59709 7.59709 5.06472 2.65838 -1.98071 0.160991 0.00161481 1.51913
33 O 1.26618 1.26618 3.79854 -1.55351 2.50865 -0.0801702 -0.0495316 -0.837437
34 O 1.26618 1.26618 8.86327 0.586105 0.172376 0.1823 0.177975 0.318488
35 O 1.26618 6.3309 3.79854 -1.43155 2.46624 -0.11972 -0.204959 -0.64985
36 O 1.26618 6.3309 8.86327 0.207592 0.514351 -0.149679 -0.067246 0.0728083
37 O 6.3309 1.26618 3.79854 -1.4941 2.4373 -0.26328 -0.0760989 -0.684695
38 O 6.3309 1.26618 8.86327 0.290316 0.471512 -0.117559 0.0816056 0.155327
39 O 6.3309 6.3309 3.79854 -1.61285 2.49179 -0.250209 -0.266325 -0.728256
40 O 6.3309 6.3309 8.86327 0.226787 0.540146 0.0779457 0.0588677 0.192572
41 O 1.26618 3.79854 3.79854 -1.55006 2.36469 -0.00416972 0.291673 -0.849108
42 O 1.26618 3.79854 8.86327 0.281879 0.479651 0.0235735 -0.0315383 0.102653
43 O 1.26618 8.86327 3.79854 -1.41223 2.27937 -0.200394 0.139969 -0.819371
44 O 1.26618 8.86327 8.86327 0.330376 0.41165 -0.146956 -0.0375241 0.0254338
45 O 6.3309 3.79854 3.79854 -1.56365 2.41045 -0.254214 0.049897 -0.758528
46 O 6.3309 3.79854 8.86327 0.332306 0.432625 -0.0280137 -0.0531966 0.114784
47 O 6.3309 8.86327 3.79854 -1.63956 2.49756 -0.309755 0.132152 -0.858922
48 O 6.3309 8.86327 8.86327 0.370223 0.392408 -0.125989 0.0525403 -0.370778
49 O 1.26618 3.79854 1.26618 -2.6594 3.52135 -0.0263208 0.0387306 -1.319
50 O 1.26618 3.79854 6.3309 -0.588102 1.48815 -0.0844659 0.136703 -0.248847
51 O 1.26618 8.86327 1.26618 -2.49616 3.37379 -0.18065 0.094214 -1.34489
52 O 1.26618 8.86327 6.3309 -0.661212 1.46891 -0.238151 0.0838193 -0.641412
53 O 6.3309 3.79854 1.26618 -2.56668 3.43096 -0.351917 0.0302582 -1.29645
54 O 6.3309 3.79854 6.3309 -0.672787 1.47914 -0.242887 0.0680652 -0.671127
55 O 6.3309 8.86327 1.26618 -2.59747 3.43837 -0.353665 0.0975829 -1.34575
56 O 6.3309 8.86327 6.3309 -0.68279 1.47452 -0.333602 0.00586733 -0.403833
57 O 1.26618 1.26618 1.26618 -2.5649 3.41258 -0.0341191 -0.0578345 -1.40487
58 O 1.26618 1.26618 6.3309 -0.530331 1.31881 0.104729 0.040128 -0.223655
59 O 1.26618 6.3309 1.26618 -2.49573 3.33595 -0.137143 -0.187876 -1.39922
60 O 1.26618 6.3309 6.3309 -0.622342 1.41184 -0.205317 -0.139033 -0.647278
61 O 6.3309 1.26618 1.26618 -2.57914 3.54457 -0.209537 -0.139274 -1.36291
62 O 6.3309 1.26618 6.3309 -0.660429 1.47557 -0.217644 0.0174729 -0.567848
63 O 6.3309 6.3309 1.26618 -2.60848 3.49939 -0.199569 -0.28489 -1.37128
64 O 6.3309 6.3309 6.3309 -0.666529 1.45923 -0.104831 -0.234278 -0.520714
65 O 3.79854 1.26618 1.26618 -2.68146 3.52579 -0.00249144 -0.0307536 -1.34688
66 O 3.79854 1.26618 6.3309 -0.611754 1.41096 0.130574 0.232272 -0.199469
67 O 3.79854 6.3309 1.26618 -2.49161 3.5891 -0.00468181 -0.182017 -1.2378
68 O 3.79854 6.3309 6.3309 -0.671928 1.46634 0.0418139 -0.238752 -0.559107
69 O 8.86327 1.26618 1.26618 -2.50164 3.37819 0.150247 -0.0707995 -1.14928
70 O 8.86327 1.26618 6.3309 -0.621284 1.44438 0.0740213 -0.117699 -0.595182
71 O 8.86327 6.3309 1.26618 -2.50155 3.36455 0.172533 -0.0648047 -1.29536
72 O 8.86327 6.3309 6.3309 -0.708842 1.50042 0.164028 -0.180191 -0.313156
73 O 3.79854 3.79854 1.26618 -2.60283 3.45897 -0.0203051 0.00107599 -1.29175
74 O 3.79854 3.79854 6.3309 -0.550946 1.35078 -0.027898 -0.0145575 -0.76477
75 O 3.79854 8.86327 1.26618 -2.45012 3.31933 -0.121334 0.206551 -1.27256
76 O 3.79854 8.86327 6.3309 -0.648013 1.4578 0.0157473 0.0477195 -0.695091
77 O 8.86327 3.79854 1.26618 -2.41516 3.25791 0.122079 -0.00555023 -1.18454
78 O 8.86327 3.79854 6.3309 -0.520374 1.33016 0.172188 0.171434 -0.570449
79 O 8.86327 8.86327 1.26618 -2.41244 3.27087 0.160583 0.192583 -1.18458
80 O 8.86327 8.86327 6.3309 -0.678142 1.47242 0.174562 -0.0670738 -0.398651
81 O 3.79854 3.79854 3.79854 -1.5098 2.34395 0.0329143 0.266981 -0.729507
82 O 3.79854 3.79854 8.86327 0.355561 0.406404 -0.262709 -0.00436569 0.0571809
83 O 3.79854 8.86327 3.79854 -1.57727 2.47215 0.107325 0.241266 -0.69591
84 O 3.79854 8.86327 8.86327 0.295801 0.468829 -0.0314713 -0.0881437 0.209187
85 O 8.86327 3.79854 3.79854 -1.50083 2.34034 0.185033 0.07611 -0.600302
86 O 8.86327 3.79854 8.86327 0.457452 0.284839 -0.0662269 0.366638 0.114028
87 O 8.86327 8.86327 3.79854 -1.5938 2.43508 0.225334 0.230893 -0.691308
88 O 8.86327 8.86327 8.86327 0.302714 0.458511 0.15524 0.00149028 -0.164184
89 O 3.79854 1.26618 3.79854 -1.54538 2.35917 0.181466 -0.0956451 -0.76169
90 O 3.79854 1.26618 8.86327 0.389829 0.373287 0.136444 0.0845883 0.0935188
91 O 3.79854 6.3309 3.79854 -1.53255 2.43253 0.140404 -0.23316 -0.665906
92 O 3.79854 6.3309 8.86327 0.320415 0.444864 -0.0309388 0.0791228 0.239048
93 O 8.86327 1.26618 3.79854 -1.41697 2.24742 0.131976 -0.0127309 -0.778363
94 O 8.86327 1.26618 8.86327 0.474928 0.275389 0.053853 -0.0384725 0.216527
95 O 8.86327 6.3309 3.79854 -1.47893 2.30199 0.257788 -0.186628 -0.736011
96 O 8.86327 6.3309 8.86327 0.339074 0.422298 0.301216 0.0780283 -0.277803
ITEM: TIMESTEP
2
ITEM: NUMBER OF ATOMS
96
ITEM: BOX BOUNDS pp pp pp
0.0000000000000000e+00 1.0129447365724008e+01
0.0000000000000000e+00 1.0129447365724008e+01
0.0000000000000000e+00 1.0129447365724008e+01
ITEM: ATOMS id element x y z q c_myChi fx fy fz
1 Hf 0 0 0 0.786591 -0.0442007 -0.0355027 -0.148033 0.602419
2 Hf 0 0 5.06472 2.69211 -1.96219 0.00278701 -0.0778904 1.66511
3 Hf 0 5.06472 4.93038e-32 0.65187 0.105866 -0.00566831 0.173925 0.521043
4 Hf 0 5.06472 5.06472 2.6829 -1.99097 0.0731483 0.125005 1.57999
5 Hf 5.06472 0 0 0.635501 0.11639 0.127637 -0.093456 0.446975
6 Hf 5.06472 0 5.06472 2.64831 -1.95222 0.160121 -0.0777548 1.58608
7 Hf 5.06472 5.06472 0 0.696388 0.0573832 0.0712981 0.190446 0.506722
8 Hf 5.06472 5.06472 5.06472 2.6477 -1.94626 0.082401 0.111399 1.58079
9 Hf 0 2.53236 2.53236 1.81804 -1.16649 0.102268 0.0251001 1.04003
10 Hf 3e-16 2.53236 7.59709 3.80066 -3.11373 0.0914113 0.0096601 1.76837
11 Hf 0 7.59709 2.53236 1.60397 -0.885276 -0.0914474 0.00334005 1.05978
12 Hf 0 7.59709 7.59709 3.64501 -2.93412 -0.171215 -0.0650004 1.79625
13 Hf 5.06472 2.53236 2.53236 1.81186 -1.09567 -0.0262996 0.114696 0.998947
14 Hf 5.06472 2.53236 7.59709 3.48907 -2.72853 0.0125359 -0.0359942 1.81296
15 Hf 5.06472 7.59709 2.53236 1.71925 -0.957618 0.258468 -0.0171834 1.08959
16 Hf 5.06472 7.59709 7.59709 3.62909 -2.94213 0.0644152 -0.15805 1.94017
17 Hf 2.53236 0 2.53236 1.83403 -1.17692 0.123551 -0.0126015 1.03548
18 Hf 2.53236 0 7.59709 3.57783 -2.89739 0.14977 -0.0906195 1.69382
19 Hf 2.53236 5.06472 2.53236 1.52172 -0.796303 0.261071 -0.10205 0.989727
20 Hf 2.53236 5.06472 7.59709 3.71108 -2.99307 0.163731 -0.117156 1.87019
21 Hf 7.59709 0 2.53236 1.77294 -1.06571 -0.0501093 -0.173879 1.07163
22 Hf 7.59709 0 7.59709 3.51087 -2.75314 -0.104463 -0.0668733 1.71404
23 Hf 7.59709 5.06472 2.53236 1.83807 -1.09438 -0.112904 0.158478 1.0467
24 Hf 7.59709 5.06472 7.59709 3.68376 -2.94518 -0.200155 0.0924368 1.93136
25 Hf 2.53236 2.53236 0 0.666671 0.0764453 0.151308 0.116126 0.488162
26 Hf 2.53236 2.53236 5.06472 2.54725 -1.78914 0.0403889 0.0148749 1.48532
27 Hf 2.53236 7.59709 9.86076e-32 0.576729 0.182445 0.333772 -0.00332289 0.481047
28 Hf 2.53236 7.59709 5.06472 2.68567 -1.93293 0.135784 -0.0704921 1.60113
29 Hf 7.59709 2.53236 9.86076e-32 0.788102 -0.0451656 -0.0827565 0.0179072 0.508989
30 Hf 7.59709 2.53236 5.06472 2.55298 -1.8084 0.0116079 -0.161229 1.60881
31 Hf 7.59709 7.59709 1.97215e-31 0.687846 0.0555219 0.164123 -0.0967466 0.533329
32 Hf 7.59709 7.59709 5.06472 2.65838 -1.98071 0.160991 0.00161481 1.51913
33 O 1.26618 1.26618 3.79854 -1.55351 2.50865 -0.0801702 -0.0495316 -0.837437
34 O 1.26618 1.26618 8.86327 0.586105 0.172376 0.1823 0.177975 0.318488
35 O 1.26618 6.3309 3.79854 -1.43155 2.46624 -0.11972 -0.204959 -0.64985
36 O 1.26618 6.3309 8.86327 0.207592 0.514351 -0.149679 -0.067246 0.0728083
37 O 6.3309 1.26618 3.79854 -1.4941 2.4373 -0.26328 -0.0760989 -0.684695
38 O 6.3309 1.26618 8.86327 0.290316 0.471512 -0.117559 0.0816056 0.155327
39 O 6.3309 6.3309 3.79854 -1.61285 2.49179 -0.250209 -0.266325 -0.728256
40 O 6.3309 6.3309 8.86327 0.226787 0.540146 0.0779457 0.0588677 0.192572
41 O 1.26618 3.79854 3.79854 -1.55006 2.36469 -0.00416972 0.291673 -0.849108
42 O 1.26618 3.79854 8.86327 0.281879 0.479651 0.0235735 -0.0315383 0.102653
43 O 1.26618 8.86327 3.79854 -1.41223 2.27937 -0.200394 0.139969 -0.819371
44 O 1.26618 8.86327 8.86327 0.330376 0.41165 -0.146956 -0.0375241 0.0254338
45 O 6.3309 3.79854 3.79854 -1.56365 2.41045 -0.254214 0.049897 -0.758528
46 O 6.3309 3.79854 8.86327 0.332306 0.432625 -0.0280137 -0.0531966 0.114784
47 O 6.3309 8.86327 3.79854 -1.63956 2.49756 -0.309755 0.132152 -0.858922
48 O 6.3309 8.86327 8.86327 0.370223 0.392408 -0.125989 0.0525403 -0.370778
49 O 1.26618 3.79854 1.26618 -2.6594 3.52135 -0.0263208 0.0387306 -1.319
50 O 1.26618 3.79854 6.3309 -0.588102 1.48815 -0.0844659 0.136703 -0.248847
51 O 1.26618 8.86327 1.26618 -2.49616 3.37379 -0.18065 0.094214 -1.34489
52 O 1.26618 8.86327 6.3309 -0.661212 1.46891 -0.238151 0.0838193 -0.641412
53 O 6.3309 3.79854 1.26618 -2.56668 3.43096 -0.351917 0.0302582 -1.29645
54 O 6.3309 3.79854 6.3309 -0.672787 1.47914 -0.242887 0.0680652 -0.671127
55 O 6.3309 8.86327 1.26618 -2.59747 3.43837 -0.353665 0.0975829 -1.34575
56 O 6.3309 8.86327 6.3309 -0.68279 1.47452 -0.333602 0.00586733 -0.403833
57 O 1.26618 1.26618 1.26618 -2.5649 3.41258 -0.0341191 -0.0578345 -1.40487
58 O 1.26618 1.26618 6.3309 -0.530331 1.31881 0.104729 0.040128 -0.223655
59 O 1.26618 6.3309 1.26618 -2.49573 3.33595 -0.137143 -0.187876 -1.39922
60 O 1.26618 6.3309 6.3309 -0.622342 1.41184 -0.205317 -0.139033 -0.647278
61 O 6.3309 1.26618 1.26618 -2.57914 3.54457 -0.209537 -0.139274 -1.36291
62 O 6.3309 1.26618 6.3309 -0.660429 1.47557 -0.217644 0.0174729 -0.567848
63 O 6.3309 6.3309 1.26618 -2.60848 3.49939 -0.199569 -0.28489 -1.37128
64 O 6.3309 6.3309 6.3309 -0.666529 1.45923 -0.104831 -0.234278 -0.520714
65 O 3.79854 1.26618 1.26618 -2.68146 3.52579 -0.00249144 -0.0307536 -1.34688
66 O 3.79854 1.26618 6.3309 -0.611754 1.41096 0.130574 0.232272 -0.199469
67 O 3.79854 6.3309 1.26618 -2.49161 3.5891 -0.00468181 -0.182017 -1.2378
68 O 3.79854 6.3309 6.3309 -0.671928 1.46634 0.0418139 -0.238752 -0.559107
69 O 8.86327 1.26618 1.26618 -2.50164 3.37819 0.150247 -0.0707995 -1.14928
70 O 8.86327 1.26618 6.3309 -0.621284 1.44438 0.0740213 -0.117699 -0.595182
71 O 8.86327 6.3309 1.26618 -2.50155 3.36455 0.172533 -0.0648047 -1.29536
72 O 8.86327 6.3309 6.3309 -0.708842 1.50042 0.164028 -0.180191 -0.313156
73 O 3.79854 3.79854 1.26618 -2.60283 3.45897 -0.0203051 0.00107599 -1.29175
74 O 3.79854 3.79854 6.3309 -0.550946 1.35078 -0.027898 -0.0145575 -0.76477
75 O 3.79854 8.86327 1.26618 -2.45012 3.31933 -0.121334 0.206551 -1.27256
76 O 3.79854 8.86327 6.3309 -0.648013 1.4578 0.0157473 0.0477195 -0.695091
77 O 8.86327 3.79854 1.26618 -2.41516 3.25791 0.122079 -0.00555023 -1.18454
78 O 8.86327 3.79854 6.3309 -0.520374 1.33016 0.172188 0.171434 -0.570449
79 O 8.86327 8.86327 1.26618 -2.41244 3.27087 0.160583 0.192583 -1.18458
80 O 8.86327 8.86327 6.3309 -0.678142 1.47242 0.174562 -0.0670738 -0.398651
81 O 3.79854 3.79854 3.79854 -1.5098 2.34395 0.0329143 0.266981 -0.729507
82 O 3.79854 3.79854 8.86327 0.355561 0.406404 -0.262709 -0.00436569 0.0571809
83 O 3.79854 8.86327 3.79854 -1.57727 2.47215 0.107325 0.241266 -0.69591
84 O 3.79854 8.86327 8.86327 0.295801 0.468829 -0.0314713 -0.0881437 0.209187
85 O 8.86327 3.79854 3.79854 -1.50083 2.34034 0.185033 0.07611 -0.600302
86 O 8.86327 3.79854 8.86327 0.457452 0.284839 -0.0662269 0.366638 0.114028
87 O 8.86327 8.86327 3.79854 -1.5938 2.43508 0.225334 0.230893 -0.691308
88 O 8.86327 8.86327 8.86327 0.302714 0.458511 0.15524 0.00149028 -0.164184
89 O 3.79854 1.26618 3.79854 -1.54538 2.35917 0.181466 -0.0956451 -0.76169
90 O 3.79854 1.26618 8.86327 0.389829 0.373287 0.136444 0.0845883 0.0935188
91 O 3.79854 6.3309 3.79854 -1.53255 2.43253 0.140404 -0.23316 -0.665906
92 O 3.79854 6.3309 8.86327 0.320415 0.444864 -0.0309388 0.0791228 0.239048
93 O 8.86327 1.26618 3.79854 -1.41697 2.24742 0.131976 -0.0127309 -0.778363
94 O 8.86327 1.26618 8.86327 0.474928 0.275389 0.053853 -0.0384725 0.216527
95 O 8.86327 6.3309 3.79854 -1.47893 2.30199 0.257788 -0.186628 -0.736011
96 O 8.86327 6.3309 8.86327 0.339074 0.422298 0.301216 0.0780283 -0.277803
ITEM: TIMESTEP
3
ITEM: NUMBER OF ATOMS
96
ITEM: BOX BOUNDS pp pp pp
0.0000000000000000e+00 1.0129447365724008e+01
0.0000000000000000e+00 1.0129447365724008e+01
0.0000000000000000e+00 1.0129447365724008e+01
ITEM: ATOMS id element x y z q c_myChi fx fy fz
1 Hf 0 0 0 0.786591 -0.0442007 -0.0355027 -0.148033 0.602419
2 Hf 0 0 5.06472 2.69211 -1.96219 0.00278701 -0.0778904 1.66511
3 Hf 0 5.06472 4.93038e-32 0.65187 0.105866 -0.00566831 0.173925 0.521043
4 Hf 0 5.06472 5.06472 2.6829 -1.99097 0.0731483 0.125005 1.57999
5 Hf 5.06472 0 0 0.635501 0.11639 0.127637 -0.093456 0.446975
6 Hf 5.06472 0 5.06472 2.64831 -1.95222 0.160121 -0.0777548 1.58608
7 Hf 5.06472 5.06472 0 0.696388 0.0573832 0.0712981 0.190446 0.506722
8 Hf 5.06472 5.06472 5.06472 2.6477 -1.94626 0.082401 0.111399 1.58079
9 Hf 0 2.53236 2.53236 1.81804 -1.16649 0.102268 0.0251001 1.04003
10 Hf 3e-16 2.53236 7.59709 3.80066 -3.11373 0.0914113 0.0096601 1.76837
11 Hf 0 7.59709 2.53236 1.60397 -0.885276 -0.0914474 0.00334005 1.05978
12 Hf 0 7.59709 7.59709 3.64501 -2.93412 -0.171215 -0.0650004 1.79625
13 Hf 5.06472 2.53236 2.53236 1.81186 -1.09567 -0.0262996 0.114696 0.998947
14 Hf 5.06472 2.53236 7.59709 3.48907 -2.72853 0.0125359 -0.0359942 1.81296
15 Hf 5.06472 7.59709 2.53236 1.71925 -0.957618 0.258468 -0.0171834 1.08959
16 Hf 5.06472 7.59709 7.59709 3.62909 -2.94213 0.0644152 -0.15805 1.94017
17 Hf 2.53236 0 2.53236 1.83403 -1.17692 0.123551 -0.0126015 1.03548
18 Hf 2.53236 0 7.59709 3.57783 -2.89739 0.14977 -0.0906195 1.69382
19 Hf 2.53236 5.06472 2.53236 1.52172 -0.796303 0.261071 -0.10205 0.989727
20 Hf 2.53236 5.06472 7.59709 3.71108 -2.99307 0.163731 -0.117156 1.87019
21 Hf 7.59709 0 2.53236 1.77294 -1.06571 -0.0501093 -0.173879 1.07163
22 Hf 7.59709 0 7.59709 3.51087 -2.75314 -0.104463 -0.0668733 1.71404
23 Hf 7.59709 5.06472 2.53236 1.83807 -1.09438 -0.112904 0.158478 1.0467
24 Hf 7.59709 5.06472 7.59709 3.68376 -2.94518 -0.200155 0.0924368 1.93136
25 Hf 2.53236 2.53236 0 0.666671 0.0764453 0.151308 0.116126 0.488162
26 Hf 2.53236 2.53236 5.06472 2.54725 -1.78914 0.0403889 0.0148749 1.48532
27 Hf 2.53236 7.59709 9.86076e-32 0.576729 0.182445 0.333772 -0.00332289 0.481047
28 Hf 2.53236 7.59709 5.06472 2.68567 -1.93293 0.135784 -0.0704921 1.60113
29 Hf 7.59709 2.53236 9.86076e-32 0.788102 -0.0451656 -0.0827565 0.0179072 0.508989
30 Hf 7.59709 2.53236 5.06472 2.55298 -1.8084 0.0116079 -0.161229 1.60881
31 Hf 7.59709 7.59709 1.97215e-31 0.687846 0.0555219 0.164123 -0.0967466 0.533329
32 Hf 7.59709 7.59709 5.06472 2.65838 -1.98071 0.160991 0.00161481 1.51913
33 O 1.26618 1.26618 3.79854 -1.55351 2.50865 -0.0801702 -0.0495316 -0.837437
34 O 1.26618 1.26618 8.86327 0.586105 0.172376 0.1823 0.177975 0.318488
35 O 1.26618 6.3309 3.79854 -1.43155 2.46624 -0.11972 -0.204959 -0.64985
36 O 1.26618 6.3309 8.86327 0.207592 0.514351 -0.149679 -0.067246 0.0728083
37 O 6.3309 1.26618 3.79854 -1.4941 2.4373 -0.26328 -0.0760989 -0.684695
38 O 6.3309 1.26618 8.86327 0.290316 0.471512 -0.117559 0.0816056 0.155327
39 O 6.3309 6.3309 3.79854 -1.61285 2.49179 -0.250209 -0.266325 -0.728256
40 O 6.3309 6.3309 8.86327 0.226787 0.540146 0.0779457 0.0588677 0.192572
41 O 1.26618 3.79854 3.79854 -1.55006 2.36469 -0.00416972 0.291673 -0.849108
42 O 1.26618 3.79854 8.86327 0.281879 0.479651 0.0235735 -0.0315383 0.102653
43 O 1.26618 8.86327 3.79854 -1.41223 2.27937 -0.200394 0.139969 -0.819371
44 O 1.26618 8.86327 8.86327 0.330376 0.41165 -0.146956 -0.0375241 0.0254338
45 O 6.3309 3.79854 3.79854 -1.56365 2.41045 -0.254214 0.049897 -0.758528
46 O 6.3309 3.79854 8.86327 0.332306 0.432625 -0.0280137 -0.0531966 0.114784
47 O 6.3309 8.86327 3.79854 -1.63956 2.49756 -0.309755 0.132152 -0.858922
48 O 6.3309 8.86327 8.86327 0.370223 0.392408 -0.125989 0.0525403 -0.370778
49 O 1.26618 3.79854 1.26618 -2.6594 3.52135 -0.0263208 0.0387306 -1.319
50 O 1.26618 3.79854 6.3309 -0.588102 1.48815 -0.0844659 0.136703 -0.248847
51 O 1.26618 8.86327 1.26618 -2.49616 3.37379 -0.18065 0.094214 -1.34489
52 O 1.26618 8.86327 6.3309 -0.661212 1.46891 -0.238151 0.0838193 -0.641412
53 O 6.3309 3.79854 1.26618 -2.56668 3.43096 -0.351917 0.0302582 -1.29645
54 O 6.3309 3.79854 6.3309 -0.672787 1.47914 -0.242887 0.0680652 -0.671127
55 O 6.3309 8.86327 1.26618 -2.59747 3.43837 -0.353665 0.0975829 -1.34575
56 O 6.3309 8.86327 6.3309 -0.68279 1.47452 -0.333602 0.00586733 -0.403833
57 O 1.26618 1.26618 1.26618 -2.5649 3.41258 -0.0341191 -0.0578345 -1.40487
58 O 1.26618 1.26618 6.3309 -0.530331 1.31881 0.104729 0.040128 -0.223655
59 O 1.26618 6.3309 1.26618 -2.49573 3.33595 -0.137143 -0.187876 -1.39922
60 O 1.26618 6.3309 6.3309 -0.622342 1.41184 -0.205317 -0.139033 -0.647278
61 O 6.3309 1.26618 1.26618 -2.57914 3.54457 -0.209537 -0.139274 -1.36291
62 O 6.3309 1.26618 6.3309 -0.660429 1.47557 -0.217644 0.0174729 -0.567848
63 O 6.3309 6.3309 1.26618 -2.60848 3.49939 -0.199569 -0.28489 -1.37128
64 O 6.3309 6.3309 6.3309 -0.666529 1.45923 -0.104831 -0.234278 -0.520714
65 O 3.79854 1.26618 1.26618 -2.68146 3.52579 -0.00249144 -0.0307536 -1.34688
66 O 3.79854 1.26618 6.3309 -0.611754 1.41096 0.130574 0.232272 -0.199469
67 O 3.79854 6.3309 1.26618 -2.49161 3.5891 -0.00468181 -0.182017 -1.2378
68 O 3.79854 6.3309 6.3309 -0.671928 1.46634 0.0418139 -0.238752 -0.559107
69 O 8.86327 1.26618 1.26618 -2.50164 3.37819 0.150247 -0.0707995 -1.14928
70 O 8.86327 1.26618 6.3309 -0.621284 1.44438 0.0740213 -0.117699 -0.595182
71 O 8.86327 6.3309 1.26618 -2.50155 3.36455 0.172533 -0.0648047 -1.29536
72 O 8.86327 6.3309 6.3309 -0.708842 1.50042 0.164028 -0.180191 -0.313156
73 O 3.79854 3.79854 1.26618 -2.60283 3.45897 -0.0203051 0.00107599 -1.29175
74 O 3.79854 3.79854 6.3309 -0.550946 1.35078 -0.027898 -0.0145575 -0.76477
75 O 3.79854 8.86327 1.26618 -2.45012 3.31933 -0.121334 0.206551 -1.27256
76 O 3.79854 8.86327 6.3309 -0.648013 1.4578 0.0157473 0.0477195 -0.695091
77 O 8.86327 3.79854 1.26618 -2.41516 3.25791 0.122079 -0.00555023 -1.18454
78 O 8.86327 3.79854 6.3309 -0.520374 1.33016 0.172188 0.171434 -0.570449
79 O 8.86327 8.86327 1.26618 -2.41244 3.27087 0.160583 0.192583 -1.18458
80 O 8.86327 8.86327 6.3309 -0.678142 1.47242 0.174562 -0.0670738 -0.398651
81 O 3.79854 3.79854 3.79854 -1.5098 2.34395 0.0329143 0.266981 -0.729507
82 O 3.79854 3.79854 8.86327 0.355561 0.406404 -0.262709 -0.00436569 0.0571809
83 O 3.79854 8.86327 3.79854 -1.57727 2.47215 0.107325 0.241266 -0.69591
84 O 3.79854 8.86327 8.86327 0.295801 0.468829 -0.0314713 -0.0881437 0.209187
85 O 8.86327 3.79854 3.79854 -1.50083 2.34034 0.185033 0.07611 -0.600302
86 O 8.86327 3.79854 8.86327 0.457452 0.284839 -0.0662269 0.366638 0.114028
87 O 8.86327 8.86327 3.79854 -1.5938 2.43508 0.225334 0.230893 -0.691308
88 O 8.86327 8.86327 8.86327 0.302714 0.458511 0.15524 0.00149028 -0.164184
89 O 3.79854 1.26618 3.79854 -1.54538 2.35917 0.181466 -0.0956451 -0.76169
90 O 3.79854 1.26618 8.86327 0.389829 0.373287 0.136444 0.0845883 0.0935188
91 O 3.79854 6.3309 3.79854 -1.53255 2.43253 0.140404 -0.23316 -0.665906
92 O 3.79854 6.3309 8.86327 0.320415 0.444864 -0.0309388 0.0791228 0.239048
93 O 8.86327 1.26618 3.79854 -1.41697 2.24742 0.131976 -0.0127309 -0.778363
94 O 8.86327 1.26618 8.86327 0.474928 0.275389 0.053853 -0.0384725 0.216527
95 O 8.86327 6.3309 3.79854 -1.47893 2.30199 0.257788 -0.186628 -0.736011
96 O 8.86327 6.3309 8.86327 0.339074 0.422298 0.301216 0.0780283 -0.277803
ITEM: TIMESTEP
4
ITEM: NUMBER OF ATOMS
96
ITEM: BOX BOUNDS pp pp pp
0.0000000000000000e+00 1.0129447365724008e+01
0.0000000000000000e+00 1.0129447365724008e+01
0.0000000000000000e+00 1.0129447365724008e+01
ITEM: ATOMS id element x y z q c_myChi fx fy fz
1 Hf 0 0 0 0.786591 -0.0442007 -0.0355027 -0.148033 0.602419
2 Hf 0 0 5.06472 2.69211 -1.96219 0.00278701 -0.0778904 1.66511
3 Hf 0 5.06472 4.93038e-32 0.65187 0.105866 -0.00566831 0.173925 0.521043