ITEM: TIMESTEP
0
ITEM: NUMBER OF ATOMS
96
ITEM: BOX BOUNDS pp pp pp
0.0000000000000000e+00 1.0129447365724008e+01
0.0000000000000000e+00 1.0129447365724008e+01
0.0000000000000000e+00 1.0129447365724008e+01
ITEM: ATOMS id element x y z q c_myChi fx fy fz
1 Hf 0 0 0 3.93723 1.58314 -0.00446874 -0.00200443 0.00455082
2 Hf 3e-16 3e-16 5.06472 3.85323 1.6248 -0.00339311 0.00960917 -0.0135357
3 Hf 0 5.06472 4.93038e-32 3.93751 1.58544 -0.00104085 -0.00390793 0.00475619
4 Hf 0 5.06472 5.06472 3.92573 1.59367 0.00118998 -0.00326913 -0.00562009
5 Hf 5.06472 1.64888e-48 0 3.94139 1.58118 -0.00559536 0.0103389 0.00359114
6 Hf 5.06472 3e-16 5.06472 3.89201 1.60375 0.00245244 0.0118438 -0.00514921
7 Hf 5.06472 5.06472 0 3.94721 1.57386 0.00362861 -0.0107763 0.00315083
8 Hf 5.06472 5.06472 5.06472 3.92866 1.58647 -0.000135973 -0.00303963 -0.00895182
9 Hf 0 2.53236 2.53236 3.94878 1.57615 -0.000842585 -0.000523175 -0.00348464
10 Hf 3e-16 2.53236 7.59709 3.92707 1.59302 -0.00195126 0.0143737 0.00196907
11 Hf 0 7.59709 2.53236 3.91669 1.60021 -0.00760851 -0.00706343 -0.00264714
12 Hf 1.22908e-33 7.59709 7.59709 3.74749 1.73711 0.000968616 -0.000789131 0.0131698
13 Hf 5.06472 2.53236 2.53236 3.95789 1.57026 0.00438941 0.00212052 -0.000309035
14 Hf 5.06472 2.53236 7.59709 3.93831 1.58177 -0.00289621 0.00442863 0.0074709
15 Hf 5.06472 7.59709 2.53236 3.93091 1.58809 -0.00128086 -0.00703591 -0.000389673
16 Hf 5.06472 7.59709 7.59709 3.86388 1.64077 -0.00113194 -0.00193687 0.00318083
17 Hf 2.53236 1.5e-16 2.53236 3.947 1.57493 0.00325841 0.00963476 -0.00489954
18 Hf 2.53236 4.5e-16 7.59709 3.86011 1.60783 0.002121 0.00225025 0.0120223
19 Hf 2.53236 5.06472 2.53236 3.95761 1.56834 -0.00232366 -0.00166859 0.00442557
20 Hf 2.53236 5.06472 7.59709 3.93047 1.589 -0.00193634 -0.0127398 0.00400402
21 Hf 7.59709 1.5e-16 2.53236 3.93774 1.58213 0.00554148 0.0102579 -0.00207086
22 Hf 7.59709 4.5e-16 7.59709 3.85462 1.65519 -0.00346878 0.00760424 0.00639011
23 Hf 7.59709 5.06472 2.53236 3.94667 1.57629 -0.00266632 0.00123146 -0.00374954
24 Hf 7.59709 5.06472 7.59709 3.90967 1.60575 0.000108898 -0.00765973 0.003843
25 Hf 2.53236 2.53236 0 3.95118 1.5764 0.0043452 0.00451403 0.000369889
26 Hf 2.53236 2.53236 5.06472 3.93687 1.58536 0.00151723 0.00940481 -0.00542408
27 Hf 2.53236 7.59709 9.86076e-32 3.93514 1.5838 -0.00341872 0.00291364 0.00116435
28 Hf 2.53236 7.59709 5.06472 3.88114 1.61205 -5.95187e-05 -0.0081314 -0.00974749
29 Hf 7.59709 2.53236 9.86076e-32 3.95022 1.57393 -0.00295489 0.0068592 0.00716138
30 Hf 7.59709 2.53236 5.06472 3.94594 1.57406 -0.00256109 -0.000370431 -0.00591927
31 Hf 7.59709 7.59709 1.97215e-31 3.84534 1.64139 0.00691188 -0.00147362 0.00797557
32 Hf 7.59709 7.59709 5.06472 3.78322 1.64997 -0.00136432 -0.0105298 -0.011644
33 O 1.26618 1.26618 3.79854 -1.97671 8.06914 -0.000667839 -0.00609763 0.0025906
34 O 1.26618 1.26618 8.86327 -1.96929 8.04876 -0.000618132 -0.00516772 -0.00696797
35 O 1.26618 6.3309 3.79854 -1.96797 8.07157 0.00125571 0.00717357 -0.00461827
36 O 1.26618 6.3309 8.86327 -1.91492 8.02509 0.000993806 0.00262034 -0.00533124
37 O 6.3309 1.26618 3.79854 -1.98343 8.0679 0.00348029 0.000639717 0.000821664
38 O 6.3309 1.26618 8.86327 -1.95411 8.06081 0.00178219 -0.00315374 -0.00246219
39 O 6.3309 6.3309 3.79854 -1.96401 8.05284 -0.00110399 0.00599019 9.40247e-05
40 O 6.3309 6.3309 8.86327 -1.99061 8.08551 -0.00300425 -0.0043394 -0.01078
41 O 1.26618 3.79854 3.79854 -2.01463 8.11118 -0.00199865 0.00244173 0.00341526
42 O 1.26618 3.79854 8.86327 -1.89585 7.95988 -0.00151978 -0.00465842 -0.00139252
43 O 1.26618 8.86327 3.79854 -1.92487 7.98937 0.00395233 0.00119823 0.00769995
44 O 1.26618 8.86327 8.86327 -1.93874 8.00738 -0.00106492 -0.00649382 -0.00646964
45 O 6.3309 3.79854 3.79854 -2.02609 8.13551 0.00213768 -0.00190781 0.00412096
46 O 6.3309 3.79854 8.86327 -1.93845 8.00929 -0.00460738 0.00131839 -0.00491546
47 O 6.3309 8.86327 3.79854 -1.9117 7.97422 0.00854954 -0.007204 0.00614628
48 O 6.3309 8.86327 8.86327 -1.8963 7.95421 0.00878284 0.0052051 0.00174556
49 O 1.26618 3.79854 1.26618 -1.94147 8.0116 -0.000257682 -0.00121652 -0.00156554
50 O 1.26618 3.79854 6.3309 -1.94986 8.02337 0.002764 0.0002705 -0.00433743
51 O 1.26618 8.86327 1.26618 -1.98743 8.08117 0.00646803 -0.00931214 0.00477176
52 O 1.26618 8.86327 6.3309 -1.94063 8.05457 0.00558781 0.00816672 0.00352662
53 O 6.3309 3.79854 1.26618 -2.02277 8.11768 -8.03399e-05 0.000946685 -0.000285279
54 O 6.3309 3.79854 6.3309 -1.96298 8.04414 0.00573992 0.00460991 0.00489151
55 O 6.3309 8.86327 1.26618 -2.0062 8.09606 0.00490819 -0.00479305 -0.0030075
56 O 6.3309 8.86327 6.3309 -2.02113 8.12221 0.0101096 -0.00026284 -0.000647484
57 O 1.26618 1.26618 1.26618 -1.92779 7.99328 0.00185923 -0.0068992 -0.00346849
58 O 1.26618 1.26618 6.3309 -1.94905 8.02172 -0.00538434 -0.00915817 -0.0105633
59 O 1.26618 6.3309 1.26618 -1.95341 8.03125 0.00441008 0.00450871 0.00337886
60 O 1.26618 6.3309 6.3309 -1.88452 7.93579 0.0036838 0.00901505 0.0114567
61 O 6.3309 1.26618 1.26618 -1.92487 7.99854 -0.00251844 -0.00428664 0.00287235
62 O 6.3309 1.26618 6.3309 -1.89974 7.95647 0.00294028 -0.00507671 0.00414813
63 O 6.3309 6.3309 1.26618 -1.89285 7.94786 0.00197604 0.00267689 -0.00582374
64 O 6.3309 6.3309 6.3309 -1.86173 7.91247 0.00564176 0.00893101 0.00286154
65 O 3.79854 1.26618 1.26618 -1.94945 8.02951 -0.00194327 -0.000535789 -0.00204378
66 O 3.79854 1.26618 6.3309 -2.05805 8.16396 -0.0014579 -0.0115376 -0.00817238
67 O 3.79854 6.3309 1.26618 -1.97772 8.05844 -0.00401547 0.00741756 0.00467845
68 O 3.79854 6.3309 6.3309 -1.99192 8.07748 0.00471221 0.00713196 0.00702828
69 O 8.86327 1.26618 1.26618 -1.95568 8.04125 0.00101573 0.000320269 -0.00229542
70 O 8.86327 1.26618 6.3309 -2.03583 8.13566 -0.00136823 -0.00422044 0.000789452
71 O 8.86327 6.3309 1.26618 -2.01461 8.10707 -0.00325934 0.00446841 -0.00127838
72 O 8.86327 6.3309 6.3309 -2.00065 8.09669 -0.00234662 0.00777291 -0.00685336
73 O 3.79854 3.79854 1.26618 -1.99539 8.08287 0.000260325 0.00591861 0.0034379
74 O 3.79854 3.79854 6.3309 -1.98595 8.08117 0.00403156 0.000783913 0.0043135
75 O 3.79854 8.86327 1.26618 -1.88439 7.93574 -0.00129421 -0.0042998 0.00381348
76 O 3.79854 8.86327 6.3309 -1.8982 7.96397 -0.000256284 -0.00151574 0.0117033
77 O 8.86327 3.79854 1.26618 -2.03087 8.12876 0.00258451 0.00482949 -0.00357251
78 O 8.86327 3.79854 6.3309 -1.84259 7.88892 -0.00285386 0.000974674 -0.00212934
79 O 8.86327 8.86327 1.26618 -1.93635 8.00449 -0.00368973 -0.00108593 -0.00482336
80 O 8.86327 8.86327 6.3309 -1.65796 7.69361 -0.0102041 -0.00562992 -0.00286769
81 O 3.79854 3.79854 3.79854 -2.00455 8.09374 -0.0037139 0.000355651 0.00125822
82 O 3.79854 3.79854 8.86327 -1.98239 8.07552 0.00101285 0.00340798 -0.000994487
83 O 3.79854 8.86327 3.79854 -2.01805 8.11153 0.00231229 0.0011576 -0.00138925
84 O 3.79854 8.86327 8.86327 -1.97095 8.05918 0.00197944 -0.00725955 -0.00873073
85 O 8.86327 3.79854 3.79854 -1.98903 8.08219 -0.00608048 -0.00450711 -5.34802e-05
86 O 8.86327 3.79854 8.86327 -1.98075 8.0652 -0.00170314 0.000414377 -0.00484679
87 O 8.86327 8.86327 3.79854 -1.96815 8.07277 0.00128422 -0.00606446 0.00880063
88 O 8.86327 8.86327 8.86327 -2.01174 8.1056 -0.00380958 -0.000352554 -0.00054587
89 O 3.79854 1.26618 3.79854 -1.90026 7.99124 0.000372578 -0.004127 0.00526044
90 O 3.79854 1.26618 8.86327 -1.99019 8.07502 -0.000430799 -0.00857849 -0.00620744
91 O 3.79854 6.3309 3.79854 -1.98747 8.07491 -0.00548319 0.00802013 0.00205001
92 O 3.79854 6.3309 8.86327 -1.96057 8.03578 -0.00397606 0.00504075 -0.00980658
93 O 8.86327 1.26618 3.79854 -1.96752 8.04493 0.00415475 -0.00261476 0.00647451
94 O 8.86327 1.26618 8.86327 -1.93611 8.01784 -0.01084 -0.00832711 -0.00362417
95 O 8.86327 6.3309 3.79854 -1.97429 8.06028 -0.00428662 0.00599156 0.00415957
96 O 8.86327 6.3309 8.86327 -1.9152 7.97783 -0.000239266 -0.0035001 0.00890786
ITEM: TIMESTEP
1
ITEM: NUMBER OF ATOMS
96
ITEM: BOX BOUNDS pp pp pp
0.0000000000000000e+00 1.0129447365724008e+01
0.0000000000000000e+00 1.0129447365724008e+01
0.0000000000000000e+00 1.0129447365724008e+01
ITEM: ATOMS id element x y z q c_myChi fx fy fz
1 Hf 0 0 0 3.93723 1.58314 -0.00446874 -0.00200443 0.00455082
2 Hf 3e-16 3e-16 5.06472 3.85323 1.6248 -0.00339311 0.00960917 -0.0135357
3 Hf 0 5.06472 0 3.93751 1.58544 -0.00104085 -0.00390793 0.00475619
4 Hf 0 5.06472 5.06472 3.92573 1.59367 0.00118998 -0.00326913 -0.00562009
5 Hf 5.06472 0 0 3.94139 1.58118 -0.00559536 0.0103389 0.00359114
6 Hf 5.06472 3e-16 5.06472 3.89201 1.60375 0.00245244 0.0118438 -0.00514921
7 Hf 5.06472 5.06472 0 3.94721 1.57386 0.00362861 -0.0107763 0.00315083
8 Hf 5.06472 5.06472 5.06472 3.92866 1.58647 -0.000135973 -0.00303963 -0.00895182
9 Hf 0 2.53236 2.53236 3.94878 1.57615 -0.000842585 -0.000523175 -0.00348464
10 Hf 3e-16 2.53236 7.59709 3.92707 1.59302 -0.00195126 0.0143737 0.00196907
11 Hf 0 7.59709 2.53236 3.91669 1.60021 -0.00760851 -0.00706343 -0.00264714
12 Hf 1.22908e-33 7.59709 7.59709 3.74749 1.73711 0.000968616 -0.000789131 0.0131698
13 Hf 5.06472 2.53236 2.53236 3.95789 1.57026 0.00438941 0.00212052 -0.000309035
14 Hf 5.06472 2.53236 7.59709 3.93831 1.58177 -0.00289621 0.00442863 0.0074709
15 Hf 5.06472 7.59709 2.53236 3.93091 1.58809 -0.00128086 -0.00703591 -0.000389673
16 Hf 5.06472 7.59709 7.59709 3.86388 1.64077 -0.00113194 -0.00193687 0.00318083
17 Hf 2.53236 0 2.53236 3.947 1.57493 0.00325841 0.00963476 -0.00489954
18 Hf 2.53236 4.5e-16 7.59709 3.86011 1.60783 0.002121 0.00225025 0.0120223
19 Hf 2.53236 5.06472 2.53236 3.95761 1.56834 -0.00232366 -0.00166859 0.00442557
20 Hf 2.53236 5.06472 7.59709 3.93047 1.589 -0.00193634 -0.0127398 0.00400402
21 Hf 7.59709 0 2.53236 3.93774 1.58213 0.00554148 0.0102579 -0.00207086
22 Hf 7.59709 4.5e-16 7.59709 3.85462 1.65519 -0.00346878 0.00760424 0.00639011
23 Hf 7.59709 5.06472 2.53236 3.94667 1.57629 -0.00266632 0.00123146 -0.00374954
24 Hf 7.59709 5.06472 7.59709 3.90967 1.60575 0.000108898 -0.00765973 0.003843
25 Hf 2.53236 2.53236 0 3.95118 1.5764 0.0043452 0.00451403 0.000369889
26 Hf 2.53236 2.53236 5.06472 3.93687 1.58536 0.00151723 0.00940481 -0.00542408
27 Hf 2.53236 7.59709 9.86076e-32 3.93514 1.5838 -0.00341872 0.00291364 0.00116435
28 Hf 2.53236 7.59709 5.06472 3.88114 1.61205 -5.95187e-05 -0.0081314 -0.00974749
29 Hf 7.59709 2.53236 0 3.95022 1.57393 -0.00295489 0.0068592 0.00716138
30 Hf 7.59709 2.53236 5.06472 3.94594 1.57406 -0.00256109 -0.000370431 -0.00591927
31 Hf 7.59709 7.59709 1.97215e-31 3.84534 1.64139 0.00691188 -0.00147362 0.00797557
32 Hf 7.59709 7.59709 5.06472 3.78322 1.64997 -0.00136432 -0.0105298 -0.011644
33 O 1.26618 1.26618 3.79854 -1.97671 8.06914 -0.000667839 -0.00609763 0.0025906
34 O 1.26618 1.26618 8.86327 -1.96929 8.04876 -0.000618132 -0.00516772 -0.00696797
35 O 1.26618 6.3309 3.79854 -1.96797 8.07157 0.00125571 0.00717357 -0.00461827
36 O 1.26618 6.3309 8.86327 -1.91492 8.02509 0.000993806 0.00262034 -0.00533124
37 O 6.3309 1.26618 3.79854 -1.98343 8.0679 0.00348029 0.000639717 0.000821664
38 O 6.3309 1.26618 8.86327 -1.95411 8.06081 0.00178219 -0.00315374 -0.00246219
39 O 6.3309 6.3309 3.79854 -1.96401 8.05284 -0.00110399 0.00599019 9.40247e-05
40 O 6.3309 6.3309 8.86327 -1.99061 8.08551 -0.00300425 -0.0043394 -0.01078
41 O 1.26618 3.79854 3.79854 -2.01463 8.11118 -0.00199865 0.00244173 0.00341526
42 O 1.26618 3.79854 8.86327 -1.89585 7.95988 -0.00151978 -0.00465842 -0.00139252
43 O 1.26618 8.86327 3.79854 -1.92487 7.98937 0.00395233 0.00119823 0.00769995
44 O 1.26618 8.86327 8.86327 -1.93874 8.00738 -0.00106492 -0.00649382 -0.00646964
45 O 6.3309 3.79854 3.79854 -2.02609 8.13551 0.00213768 -0.00190781 0.00412096
46 O 6.3309 3.79854 8.86327 -1.93845 8.00929 -0.00460738 0.00131839 -0.00491546
47 O 6.3309 8.86327 3.79854 -1.9117 7.97422 0.00854954 -0.007204 0.00614628
48 O 6.3309 8.86327 8.86327 -1.8963 7.95421 0.00878284 0.0052051 0.00174556
49 O 1.26618 3.79854 1.26618 -1.94147 8.0116 -0.000257682 -0.00121652 -0.00156554
50 O 1.26618 3.79854 6.3309 -1.94986 8.02337 0.002764 0.0002705 -0.00433743
51 O 1.26618 8.86327 1.26618 -1.98743 8.08117 0.00646803 -0.00931214 0.00477176
52 O 1.26618 8.86327 6.3309 -1.94063 8.05457 0.00558781 0.00816672 0.00352662
53 O 6.3309 3.79854 1.26618 -2.02277 8.11768 -8.03399e-05 0.000946685 -0.000285279
54 O 6.3309 3.79854 6.3309 -1.96298 8.04414 0.00573992 0.00460991 0.00489151
55 O 6.3309 8.86327 1.26618 -2.0062 8.09606 0.00490819 -0.00479305 -0.0030075
56 O 6.3309 8.86327 6.3309 -2.02113 8.12221 0.0101096 -0.00026284 -0.000647484
57 O 1.26618 1.26618 1.26618 -1.92779 7.99328 0.00185923 -0.0068992 -0.00346849
58 O 1.26618 1.26618 6.3309 -1.94905 8.02172 -0.00538434 -0.00915817 -0.0105633
59 O 1.26618 6.3309 1.26618 -1.95341 8.03125 0.00441008 0.00450871 0.00337886
60 O 1.26618 6.3309 6.3309 -1.88452 7.93579 0.0036838 0.00901505 0.0114567
61 O 6.3309 1.26618 1.26618 -1.92487 7.99854 -0.00251844 -0.00428664 0.00287235
62 O 6.3309 1.26618 6.3309 -1.89974 7.95647 0.00294028 -0.00507671 0.00414813
63 O 6.3309 6.3309 1.26618 -1.89285 7.94786 0.00197604 0.00267689 -0.00582374
64 O 6.3309 6.3309 6.3309 -1.86173 7.91247 0.00564176 0.00893101 0.00286154
65 O 3.79854 1.26618 1.26618 -1.94945 8.02951 -0.00194327 -0.000535789 -0.00204378
66 O 3.79854 1.26618 6.3309 -2.05805 8.16396 -0.0014579 -0.0115376 -0.00817238
67 O 3.79854 6.3309 1.26618 -1.97772 8.05844 -0.00401547 0.00741756 0.00467845
68 O 3.79854 6.3309 6.3309 -1.99192 8.07748 0.00471221 0.00713196 0.00702828
69 O 8.86327 1.26618 1.26618 -1.95568 8.04125 0.00101573 0.000320269 -0.00229542
70 O 8.86327 1.26618 6.3309 -2.03583 8.13566 -0.00136823 -0.00422044 0.000789452
71 O 8.86327 6.3309 1.26618 -2.01461 8.10707 -0.00325934 0.00446841 -0.00127838
72 O 8.86327 6.3309 6.3309 -2.00065 8.09669 -0.00234662 0.00777291 -0.00685336
73 O 3.79854 3.79854 1.26618 -1.99539 8.08287 0.000260325 0.00591861 0.0034379
74 O 3.79854 3.79854 6.3309 -1.98595 8.08117 0.00403156 0.000783913 0.0043135
75 O 3.79854 8.86327 1.26618 -1.88439 7.93574 -0.00129421 -0.0042998 0.00381348
76 O 3.79854 8.86327 6.3309 -1.8982 7.96397 -0.000256284 -0.00151574 0.0117033
77 O 8.86327 3.79854 1.26618 -2.03087 8.12876 0.00258451 0.00482949 -0.00357251
78 O 8.86327 3.79854 6.3309 -1.84259 7.88892 -0.00285386 0.000974674 -0.00212934
79 O 8.86327 8.86327 1.26618 -1.93635 8.00449 -0.00368973 -0.00108593 -0.00482336
80 O 8.86327 8.86327 6.3309 -1.65796 7.69361 -0.0102041 -0.00562992 -0.00286769
81 O 3.79854 3.79854 3.79854 -2.00455 8.09374 -0.0037139 0.000355651 0.00125822
82 O 3.79854 3.79854 8.86327 -1.98239 8.07552 0.00101285 0.00340798 -0.000994487
83 O 3.79854 8.86327 3.79854 -2.01805 8.11153 0.00231229 0.0011576 -0.00138925
84 O 3.79854 8.86327 8.86327 -1.97095 8.05918 0.00197944 -0.00725955 -0.00873073
85 O 8.86327 3.79854 3.79854 -1.98903 8.08219 -0.00608048 -0.00450711 -5.34802e-05
86 O 8.86327 3.79854 8.86327 -1.98075 8.0652 -0.00170314 0.000414377 -0.00484679
87 O 8.86327 8.86327 3.79854 -1.96815 8.07277 0.00128422 -0.00606446 0.00880063
88 O 8.86327 8.86327 8.86327 -2.01174 8.1056 -0.00380958 -0.000352554 -0.00054587
89 O 3.79854 1.26618 3.79854 -1.90026 7.99124 0.000372578 -0.004127 0.00526044
90 O 3.79854 1.26618 8.86327 -1.99019 8.07502 -0.000430799 -0.00857849 -0.00620744
91 O 3.79854 6.3309 3.79854 -1.98747 8.07491 -0.00548319 0.00802013 0.00205001
92 O 3.79854 6.3309 8.86327 -1.96057 8.03578 -0.00397606 0.00504075 -0.00980658
93 O 8.86327 1.26618 3.79854 -1.96752 8.04493 0.00415475 -0.00261476 0.00647451
94 O 8.86327 1.26618 8.86327 -1.93611 8.01784 -0.01084 -0.00832711 -0.00362417
95 O 8.86327 6.3309 3.79854 -1.97429 8.06028 -0.00428662 0.00599156 0.00415957
96 O 8.86327 6.3309 8.86327 -1.9152 7.97783 -0.000239266 -0.0035001 0.00890786
