ITEM: TIMESTEP
0
ITEM: NUMBER OF ATOMS
96
ITEM: BOX BOUNDS pp pp pp
0.0000000000000000e+00 1.0129447365724008e+01
0.0000000000000000e+00 1.0129447365724008e+01
0.0000000000000000e+00 1.0129447365724008e+01
ITEM: ATOMS id element x y z q
1 Hf 0 0 0 2.65145
2 Hf 0 0 5.06472 2.65177
3 Hf 0 5.06472 4.93038e-32 2.64941
4 Hf 0 5.06472 5.06472 2.64831
5 Hf 5.06472 0 0 2.65482
6 Hf 5.06472 0 5.06472 2.64351
7 Hf 5.06472 5.06472 0 2.65522
8 Hf 5.06472 5.06472 5.06472 2.64739
9 Hf 0 2.53236 2.53236 2.6474
10 Hf 3e-16 2.53236 7.59709 2.65002
11 Hf 0 7.59709 2.53236 2.64863
12 Hf 0 7.59709 7.59709 2.65874
13 Hf 5.06472 2.53236 2.53236 2.64791
14 Hf 5.06472 2.53236 7.59709 2.64798
15 Hf 5.06472 7.59709 2.53236 2.64719
16 Hf 5.06472 7.59709 7.59709 2.65255
17 Hf 2.53236 0 2.53236 2.64701
18 Hf 2.53236 0 7.59709 2.64938
19 Hf 2.53236 5.06472 2.53236 2.65503
20 Hf 2.53236 5.06472 7.59709 2.65589
21 Hf 7.59709 0 2.53236 2.64552
22 Hf 7.59709 0 7.59709 2.6472
23 Hf 7.59709 5.06472 2.53236 2.64635
24 Hf 7.59709 5.06472 7.59709 2.65152
25 Hf 2.53236 2.53236 0 2.6484
26 Hf 2.53236 2.53236 5.06472 2.64582
27 Hf 2.53236 7.59709 9.86076e-32 2.65425
28 Hf 2.53236 7.59709 5.06472 2.64073
29 Hf 7.59709 2.53236 9.86076e-32 2.6491
30 Hf 7.59709 2.53236 5.06472 2.64515
31 Hf 7.59709 7.59709 1.97215e-31 2.655
32 Hf 7.59709 7.59709 5.06472 2.65293
33 O 1.26618 1.26618 3.79854 -1.33045
34 O 1.26618 1.26618 8.86327 -1.32793
35 O 1.26618 6.3309 3.79854 -1.3282
36 O 1.26618 6.3309 8.86327 -1.32229
37 O 6.3309 1.26618 3.79854 -1.32366
38 O 6.3309 1.26618 8.86327 -1.32845
39 O 6.3309 6.3309 3.79854 -1.3244
40 O 6.3309 6.3309 8.86327 -1.31938
41 O 1.26618 3.79854 3.79854 -1.32169
42 O 1.26618 3.79854 8.86327 -1.32525
43 O 1.26618 8.86327 3.79854 -1.33224
44 O 1.26618 8.86327 8.86327 -1.32393
45 O 6.3309 3.79854 3.79854 -1.32254
46 O 6.3309 3.79854 8.86327 -1.32235
47 O 6.3309 8.86327 3.79854 -1.32297
48 O 6.3309 8.86327 8.86327 -1.32461
49 O 1.26618 3.79854 1.26618 -1.32977
50 O 1.26618 3.79854 6.3309 -1.32269
51 O 1.26618 8.86327 1.26618 -1.3269
52 O 1.26618 8.86327 6.3309 -1.32457
53 O 6.3309 3.79854 1.26618 -1.32017
54 O 6.3309 3.79854 6.3309 -1.31982
55 O 6.3309 8.86327 1.26618 -1.32366
56 O 6.3309 8.86327 6.3309 -1.31865
57 O 1.26618 1.26618 1.26618 -1.33312
58 O 1.26618 1.26618 6.3309 -1.32131
59 O 1.26618 6.3309 1.26618 -1.32218
60 O 1.26618 6.3309 6.3309 -1.32161
61 O 6.3309 1.26618 1.26618 -1.32861
62 O 6.3309 1.26618 6.3309 -1.31864
63 O 6.3309 6.3309 1.26618 -1.31571
64 O 6.3309 6.3309 6.3309 -1.31803
65 O 3.79854 1.26618 1.26618 -1.33377
66 O 3.79854 1.26618 6.3309 -1.3229
67 O 3.79854 6.3309 1.26618 -1.3225
68 O 3.79854 6.3309 6.3309 -1.32812
69 O 8.86327 1.26618 1.26618 -1.33454
70 O 8.86327 1.26618 6.3309 -1.32732
71 O 8.86327 6.3309 1.26618 -1.32333
72 O 8.86327 6.3309 6.3309 -1.31707
73 O 3.79854 3.79854 1.26618 -1.32445
74 O 3.79854 3.79854 6.3309 -1.31848
75 O 3.79854 8.86327 1.26618 -1.32868
76 O 3.79854 8.86327 6.3309 -1.3264
77 O 8.86327 3.79854 1.26618 -1.33174
78 O 8.86327 3.79854 6.3309 -1.32297
79 O 8.86327 8.86327 1.26618 -1.3253
80 O 8.86327 8.86327 6.3309 -1.32095
81 O 3.79854 3.79854 3.79854 -1.32216
82 O 3.79854 3.79854 8.86327 -1.32411
83 O 3.79854 8.86327 3.79854 -1.33643
84 O 3.79854 8.86327 8.86327 -1.32556
85 O 8.86327 3.79854 3.79854 -1.32614
86 O 8.86327 3.79854 8.86327 -1.33027
87 O 8.86327 8.86327 3.79854 -1.32614
88 O 8.86327 8.86327 8.86327 -1.3288
89 O 3.79854 1.26618 3.79854 -1.33198
90 O 3.79854 1.26618 8.86327 -1.32106
91 O 3.79854 6.3309 3.79854 -1.32518
92 O 3.79854 6.3309 8.86327 -1.31921
93 O 8.86327 1.26618 3.79854 -1.32929
94 O 8.86327 1.26618 8.86327 -1.32453
95 O 8.86327 6.3309 3.79854 -1.32442
96 O 8.86327 6.3309 8.86327 -1.32203
ITEM: TIMESTEP
1
ITEM: NUMBER OF ATOMS
96
ITEM: BOX BOUNDS pp pp pp
0.0000000000000000e+00 1.0129447365724008e+01
0.0000000000000000e+00 1.0129447365724008e+01
0.0000000000000000e+00 1.0129447365724008e+01
ITEM: ATOMS id element x y z q
1 Hf 0.00272549 0.000933018 -0.0025209 2.64626
2 Hf 0.000343658 0.00132323 5.06499 2.65028
3 Hf 0.000488605 5.06192 0.00269497 2.64349
4 Hf 8.3014e-05 5.06146 5.06717 2.64888
5 Hf 5.06489 -0.00367718 0.00248811 2.6456
6 Hf 5.06385 -0.00146045 5.06358 2.65204
7 Hf 5.06777 5.06246 -0.00145488 2.64891
8 Hf 5.06624 5.06484 5.06778 2.64302
9 Hf -0.0031838 2.53487 2.53012 2.65645
10 Hf -0.000802419 2.53599 7.59357 2.65388
11 Hf 0.000439075 7.60082 2.53232 2.65589
12 Hf -0.00396209 7.59995 7.59976 2.64978
13 Hf 5.06089 2.52964 2.5332 2.64919
14 Hf 5.06482 2.53334 7.59993 2.6506
15 Hf 5.06116 7.59924 2.53371 2.65609
16 Hf 5.06438 7.5944 7.60093 2.64654
17 Hf 2.53152 -0.00158457 2.53098 2.64816
18 Hf 2.53378 -0.00225189 7.59369 2.6456
19 Hf 2.53394 5.06462 2.53064 2.65016
20 Hf 2.52917 5.06616 7.59455 2.65263
21 Hf 7.59989 -0.00347418 2.53167 2.6498
22 Hf 7.60042 0.000789559 7.59474 2.65252
23 Hf 7.59313 5.06243 2.53409 2.64635
24 Hf 7.59833 5.06537 7.6007 2.64524
25 Hf 2.5349 2.53406 -0.00273004 2.64048
26 Hf 2.52956 2.53363 5.06452 2.64972
27 Hf 2.53008 7.59399 -0.00263554 2.64409
28 Hf 2.52932 7.59959 5.06744 2.64412
29 Hf 7.60011 2.52998 0.000140628 2.64759
30 Hf 7.59485 2.5338 5.06377 2.64847
31 Hf 7.59935 7.59981 -0.00215539 2.6531
32 Hf 7.59837 7.59966 5.06192 2.64845
33 O 1.26396 1.27886 3.80011 -1.32848
34 O 1.25561 1.27008 8.86441 -1.32753
35 O 1.25836 6.32828 3.79286 -1.32266
36 O 1.25378 6.32263 8.85834 -1.32398
37 O 6.34153 1.25555 3.7934 -1.32034
38 O 6.33349 1.26647 8.86966 -1.32763
39 O 6.33645 6.33977 3.79573 -1.32308
40 O 6.34041 6.3282 8.87089 -1.3257
41 O 1.27599 3.81068 3.78841 -1.32337
42 O 1.27106 3.78666 8.85107 -1.32406
43 O 1.27026 8.85277 3.80495 -1.3239
44 O 1.27707 8.86284 8.8639 -1.32336
45 O 6.319 3.79212 3.80307 -1.31967
46 O 6.32159 3.79267 8.86361 -1.32502
47 O 6.32431 8.8736 3.78839 -1.32112
48 O 6.33906 8.86821 8.85189 -1.3253
49 O 1.26221 3.80722 1.27816 -1.32456
50 O 1.26512 3.80262 6.32796 -1.32819
51 O 1.27007 8.86455 1.26485 -1.32744
52 O 1.2716 8.871 6.33328 -1.32885
53 O 6.33041 3.78916 1.27449 -1.32577
54 O 6.33582 3.80987 6.32846 -1.32423
55 O 6.34074 8.87116 1.27403 -1.31847
56 O 6.33744 8.85613 6.34275 -1.32402
57 O 1.26043 1.26433 1.26174 -1.32059
58 O 1.26914 1.25847 6.324 -1.32437
59 O 1.2617 6.32424 1.27798 -1.32339
60 O 1.26618 6.32389 6.33196 -1.32538
61 O 6.32027 1.26229 1.26838 -1.32078
62 O 6.32749 1.25602 6.32891 -1.32547
63 O 6.31966 6.32289 1.27299 -1.32248
64 O 6.34043 6.33756 6.3388 -1.32498
65 O 3.81061 1.26055 1.27321 -1.32863
66 O 3.79673 1.27759 6.32424 -1.32307
67 O 3.80852 6.33633 1.2742 -1.32615
68 O 3.79575 6.33339 6.33892 -1.32586
69 O 8.87356 1.27192 1.2756 -1.32389
70 O 8.85744 1.27002 6.33717 -1.32788
71 O 8.85012 6.33457 1.27056 -1.31894
72 O 8.85347 6.34161 6.33376 -1.32693
73 O 3.80542 3.80343 1.25641 -1.32648
74 O 3.80334 3.80079 6.32155 -1.31792
75 O 3.80558 8.85232 1.27891 -1.32068
76 O 3.79631 8.86592 6.31944 -1.32292
77 O 8.86276 3.78694 1.27263 -1.32741
78 O 8.86684 3.79167 6.3389 -1.32445
79 O 8.87346 8.85843 1.25498 -1.3279
80 O 8.8753 8.86667 6.3357 -1.32835
81 O 3.81022 3.80494 3.80873 -1.32007
82 O 3.80474 3.81127 8.85435 -1.32781
83 O 3.80152 8.86215 3.79309 -1.32231
84 O 3.80961 8.85252 8.86349 -1.33137
85 O 8.86678 3.80293 3.79255 -1.32471
86 O 8.85782 3.7885 8.86148 -1.32826
87 O 8.87489 8.85815 3.80789 -1.32634
88 O 8.85849 8.85137 8.87242 -1.32369
89 O 3.79375 1.27438 3.81054 -1.32187
90 O 3.80163 1.26017 8.85887 -1.3235
91 O 3.79741 6.34092 3.79476 -1.32045
92 O 3.79623 6.3351 8.86618 -1.32448
93 O 8.86884 1.26803 3.7887 -1.32391
94 O 8.86071 1.27355 8.85288 -1.33049
95 O 8.86229 6.33099 3.79511 -1.32327
96 O 8.85473 6.33258 8.86755 -1.3192
ITEM: TIMESTEP
2
ITEM: NUMBER OF ATOMS
96
ITEM: BOX BOUNDS pp pp pp
0.0000000000000000e+00 1.0129447365724008e+01
0.0000000000000000e+00 1.0129447365724008e+01
0.0000000000000000e+00 1.0129447365724008e+01
ITEM: ATOMS id element x y z q
1 Hf 0.00544708 0.00189019 -0.00505923 2.64601
2 Hf 0.000672105 0.002674 5.06525 2.65041
3 Hf 0.000957098 5.05914 0.005408 2.64221
4 Hf 0.000163935 5.05821 5.0696 2.64752
5 Hf 5.06507 -0.0073572 0.00496083 2.64513
6 Hf 5.06297 -0.00291899 5.06244 2.6516
7 Hf 5.07081 5.06023 -0.00291555 2.64906
8 Hf 5.06774 5.06497 5.07083 2.64326
9 Hf -0.00636677 2.53736 2.52787 2.65761
10 Hf -0.00159416 2.53961 7.59006 2.65458
11 Hf 0.000878349 7.60453 2.53227 2.65622
12 Hf -0.00794585 7.6028 7.60243 2.64974
13 Hf 5.05706 2.5269 2.53405 2.64875
14 Hf 5.06489 2.53433 7.60276 2.65031
15 Hf 5.05759 7.60137 2.53505 2.65686
16 Hf 5.06404 7.59172 7.60477 2.64624
17 Hf 2.53065 -0.00316191 2.52957 2.64807
18 Hf 2.53519 -0.00449128 7.59029 2.64522
19 Hf 2.53551 5.06454 2.52895 2.65009
20 Hf 2.52597 5.0676 7.59201 2.65295
21 Hf 7.60269 -0.00694224 2.53098 2.64993
22 Hf 7.60375 0.00157078 7.59239 2.65289
23 Hf 7.58915 5.06016 2.53583 2.64627
24 Hf 7.59958 5.06603 7.6043 2.64533
25 Hf 2.53742 2.53574 -0.00547993 2.63972
26 Hf 2.52677 2.53489 5.06432 2.64979
27 Hf 2.52779 7.59087 -0.00526822 2.64322
28 Hf 2.52629 7.60209 5.07017 2.64381
29 Hf 7.60311 2.52757 0.000296238 2.64721
30 Hf 7.59261 2.53523 5.06282 2.64806
31 Hf 7.60163 7.60251 -0.00430697 2.6535
32 Hf 7.59965 7.60224 5.05914 2.64824
33 O 1.26179 1.29149 3.80167 -1.32945
34 O 1.24512 1.27394 8.86555 -1.32738
35 O 1.25057 6.32566 3.78727 -1.3201
36 O 1.24138 6.31435 8.85351 -1.32577
37 O 6.35219 1.24497 3.78832 -1.31923
38 O 6.3361 1.26678 8.87606 -1.32748
39 O 6.34206 6.3486 3.79303 -1.32448
40 O 6.34989 6.32548 8.87854 -1.32613
41 O 1.28579 3.82281 3.77835 -1.32208
42 O 1.27596 3.77482 8.83899 -1.32463
43 O 1.27436 8.84238 3.81134 -1.32395
44 O 1.28799 8.86239 8.86455 -1.32499
45 O 6.30717 3.78571 3.80765 -1.31911
46 O 6.31234 3.7868 8.86399 -1.32473
47 O 6.31782 8.88392 3.77833 -1.32093
48 O 6.34718 8.87315 8.84059 -1.32432
49 O 1.25831 3.81586 1.29 -1.32394
50 O 1.26404 3.80669 6.32501 -1.32884
51 O 1.27401 8.86584 1.26352 -1.32832
52 O 1.27704 8.87868 6.33571 -1.3276
53 O 6.32998 3.77978 1.28278 -1.32654
54 O 6.34081 3.82117 6.32601 -1.32489
55 O 6.35065 8.87903 1.2818 -1.31926
56 O 6.34398 8.849 6.3545 -1.32341
57 O 1.25483 1.2625 1.25728 -1.32092
58 O 1.27211 1.25078 6.31714 -1.32471
59 O 1.25724 6.3176 1.28964 -1.32343
60 O 1.26616 6.31695 6.333 -1.32601
61 O 6.30971 1.25838 1.27056 -1.31829
62 O 6.32411 1.24592 6.32693 -1.32667
63 O 6.30844 6.31485 1.27979 -1.32163
64 O 6.34991 6.34419 6.34669 -1.3239
65 O 3.8226 1.2549 1.28024 -1.32886
66 O 3.79494 1.28897 6.31765 -1.32191
67 O 3.81843 6.34171 1.28216 -1.32448
68 O 3.79302 6.33589 6.34696 -1.32758
69 O 8.88381 1.27756 1.28492 -1.3235
70 O 8.85166 1.27386 6.34334 -1.32801
71 O 8.83701 6.33814 1.2749 -1.31817
72 O 8.84376 6.35227 6.33663 -1.3268
73 O 3.81224 3.80822 1.24662 -1.32874
74 O 3.80816 3.80308 6.31225 -1.31653
75 O 3.81256 8.84144 1.29154 -1.31933
76 O 3.79411 8.8686 6.30804 -1.3238
77 O 8.86222 3.77539 1.279 -1.32696
78 O 8.87041 3.78485 6.34682 -1.32498
79 O 8.8837 8.85365 1.24383 -1.32836
80 O 8.88735 8.87016 6.3405 -1.32798
81 O 3.8219 3.81133 3.81885 -1.31847
82 O 3.81092 3.82393 8.84545 -1.32766
83 O 3.80447 8.86112 3.78771 -1.3202
84 O 3.82067 8.84179 8.86376 -1.3322
85 O 8.87025 3.80731 3.78668 -1.32577
86 O 8.85241 3.77852 8.85977 -1.32902
87 O 8.88649 8.85307 3.81722 -1.32786
88 O 8.85381 8.83954 8.88158 -1.32324
89 O 3.78896 1.28256 3.82246 -1.3214
90 O 3.80467 1.2542 8.85451 -1.32627
91 O 3.79627 6.35093 3.79109 -1.32088
92 O 3.79386 6.3393 8.86913 -1.32438
93 O 8.87444 1.26988 3.77898 -1.32403
94 O 8.85816 1.28082 8.84256 -1.33031
95 O 8.86132 6.33109 3.79175 -1.32146
96 O 8.84627 6.33418 8.87186 -1.31759
ITEM: TIMESTEP
3
ITEM: NUMBER OF ATOMS
96
ITEM: BOX BOUNDS pp pp pp
0.0000000000000000e+00 1.0129447365724008e+01
0.0000000000000000e+00 1.0129447365724008e+01
0.0000000000000000e+00 1.0129447365724008e+01
ITEM: ATOMS id element x y z q
1 Hf 0.00824758 0.00290407 -0.00769264 2.64555
2 Hf 0.000996633 0.00409783 5.06553 2.6505
3 Hf 0.00141425 5.05629 0.00822921 2.64092
4 Hf 0.00024709 5.05485 5.07209 2.64622
5 Hf 5.0653 -0.0111576 0.00749831 2.6447
6 Hf 5.06205 -0.00442124 5.06126 2.65113
7 Hf 5.07396 5.05795 -0.00442175 2.64903
8 Hf 5.06926 5.06512 5.07395 2.64342
9 Hf -0.00964741 2.53993 2.52554 2.65851
10 Hf -0.00240204 2.54332 7.58644 2.65519
11 Hf 0.00133026 7.60833 2.53221 2.65658
12 Hf -0.0120805 7.60575 7.6052 2.64993
13 Hf 5.05313 2.52406 2.53493 2.64818
14 Hf 5.06495 2.53534 7.60569 2.65006
15 Hf 5.05391 7.60355 2.53643 2.65799
16 Hf 5.06373 7.58896 7.60871 2.64596
17 Hf 2.52974 -0.00478331 2.52811 2.648
18 Hf 2.53665 -0.00678599 7.58678 2.64484
19 Hf 2.53714 5.0645 2.52723 2.64982
20 Hf 2.52267 5.06909 7.58938 2.65343
21 Hf 7.60559 -0.0105102 2.53027 2.64973
22 Hf 7.60717 0.00236734 7.58996 2.65308
23 Hf 7.58502 5.05784 2.53762 2.64615
24 Hf 7.60087 5.06673 7.608 2.64555
25 Hf 2.54 2.53746 -0.00833625 2.63895
26 Hf 2.5239 2.53618 5.0641 2.6497
27 Hf 2.52545 7.58762 -0.0079742 2.64234
28 Hf 2.52316 7.60464 5.07299 2.64352
29 Hf 7.6062 2.52504 0.000474574 2.6467
30 Hf 7.5903 2.53669 5.06183 2.64763
31 Hf 7.60398 7.60528 -0.00651873 2.65365
32 Hf 7.60095 7.60488 5.05628 2.648
33 O 1.25963 1.30436 3.80322 -1.33049
34 O 1.2345 1.27781 8.86671 -1.32705
35 O 1.24262 6.323 3.78168 -1.31745
36 O 1.22865 6.30583 8.84869 -1.32763
37 O 6.36317 1.23422 3.78318 -1.31808
38 O 6.33877 1.2671 8.88263 -1.32739
39 O 6.34792 6.35759 3.79044 -1.32585
40 O 6.35952 6.32265 8.88641 -1.32656
41 O 1.29586 3.83525 3.76816 -1.32067
42 O 1.28105 3.76271 8.82679 -1.3251
43 O 1.27861 8.83188 3.81788 -1.3239
44 O 1.29924 8.8619 8.86523 -1.32666
45 O 6.29518 3.77914 3.81245 -1.31852
46 O 6.30294 3.78078 8.86443 -1.32451
47 O 6.31132 8.89451 3.76816 -1.32057
48 O 6.35545 8.87822 8.82914 -1.32332
49 O 1.25443 3.82467 1.30187 -1.32319
50 O 1.26293 3.81082 6.32194 -1.32962
51 O 1.27817 8.86718 1.26215 -1.32916
52 O 1.28263 8.88647 6.33829 -1.32635
53 O 6.32961 3.77015 1.29126 -1.32725
54 O 6.34602 3.83272 6.32352 -1.32568
55 O 6.36093 8.88704 1.2896 -1.31987
56 O 6.35071 8.84169 6.36639 -1.3228
57 O 1.24933 1.26067 1.25267 -1.32127
58 O 1.27516 1.24293 6.31019 -1.32489
59 O 1.25267 6.31085 1.30136 -1.32324
60 O 1.26607 6.30993 6.33403 -1.3266
61 O 6.29903 1.25432 1.27278 -1.31576
62 O 6.32067 1.23564 6.32492 -1.328
63 O 6.29696 6.30655 1.28674 -1.32068
64 O 6.35955 6.35097 6.3548 -1.32275
65 O 3.8347 1.24909 1.28744 -1.32902
66 O 3.79311 1.30062 6.31104 -1.32077
67 O 3.82846 6.34716 1.29019 -1.32274
68 O 3.79031 6.33849 6.35526 -1.32942
69 O 8.89425 1.28319 1.29428 -1.32307
70 O 8.84579 1.27779 6.34949 -1.3281
71 O 8.82358 6.34166 1.2793 -1.31743
72 O 8.83393 6.36314 6.33962 -1.3263
73 O 3.81912 3.813 1.23653 -1.33107
74 O 3.81314 3.8055 6.30281 -1.31513
75 O 3.81964 8.83041 1.30432 -1.31776
76 O 3.79191 8.8714 6.29642 -1.32465
77 O 8.86162 3.76366 1.28539 -1.32651
78 O 8.87406 3.77795 6.35486 -1.32548
79 O 8.89429 8.84885 1.23248 -1.32874
80 O 8.8998 8.87387 6.34544 -1.32764
81 O 3.83386 3.81793 3.8291 -1.31678
82 O 3.81721 3.83682 8.8363 -1.32749
83 O 3.80741 8.86021 3.78228 -1.31803
84 O 3.83201 8.83081 8.86412 -1.33327
85 O 8.87375 3.81178 3.78085 -1.32707
86 O 8.84693 3.76839 8.85816 -1.3297
87 O 8.89835 8.84792 3.82676 -1.32974
88 O 8.84918 8.82747 8.89092 -1.32262
89 O 3.78407 1.29089 3.83461 -1.32093
90 O 3.8077 1.24815 8.85012 -1.32912
91 O 3.79507 6.3612 3.78749 -1.32131
92 O 3.79134 6.34359 8.87223 -1.32435
93 O 8.88021 1.27178 3.76919 -1.32414
94 O 8.85557 1.28813 8.83208 -1.32999
95 O 8.86031 6.3312 3.78842 -1.31968
96 O 8.83773 6.33568 8.8763 -1.31605
ITEM: TIMESTEP
4
ITEM: NUMBER OF ATOMS
96
ITEM: BOX BOUNDS pp pp pp
0.0000000000000000e+00 1.0129447365724008e+01
0.0000000000000000e+00 1.0129447365724008e+01
0.0000000000000000e+00 1.0129447365724008e+01
ITEM: ATOMS id element x y z q
1 Hf 0.0111241 0.00397734 -0.0104187 2.6449
2 Hf 0.00131817 0.00559829 5.06581 2.65061
3 Hf 0.00185356 5.05336 0.0111638 2.63972
4 Hf 0.000334359 5.05141 5.07462 2.64486
5 Hf 5.06557 -0.0150799 0.0101026 2.64423
6 Hf 5.0611 -0.00596674 5.06004 2.65061
7 Hf 5.07721 5.05564 -0.00596715 2.64894
8 Hf 5.07082 5.06529 5.07715 2.64347
9 Hf -0.0130231 2.54257 2.52314 2.65975
10 Hf -0.00322776 2.54712 7.58271 2.65564
11 Hf 0.00179342 7.6122 2.53216 2.65692
12 Hf -0.0163701 7.60878 7.60805 2.65008
13 Hf 5.0491 2.52113 2.53585 2.64767
14 Hf 5.06498 2.53638 7.60869 2.64974
15 Hf 5.05011 7.60576 2.53786 2.65896
16 Hf 5.06344 7.58612 7.61275 2.64559
17 Hf 2.5288 -0.00645043 2.5266 2.64797
18 Hf 2.53815 -0.00913288 7.58314 2.64444
19 Hf 2.53882 5.06449 2.5255 2.6493
20 Hf 2.51928 5.07064 7.58665 2.65397
21 Hf 7.60857 -0.0141744 2.52953 2.64926
22 Hf 7.61069 0.00317822 7.58746 2.65305
23 Hf 7.58075 5.05547 2.53948 2.64614
24 Hf 7.6022 5.06747 7.6118 2.64576
25 Hf 2.54263 2.53923 -0.0112995 2.63797
26 Hf 2.52095 2.53751 5.06386 2.64941
27 Hf 2.52305 7.58425 -0.0107464 2.64136
28 Hf 2.51995 7.60726 5.07588 2.64323
29 Hf 7.60936 2.52241 0.000678788 2.64608
30 Hf 7.58791 2.53819 5.0608 2.6472
31 Hf 7.60639 7.60811 -0.00878626 2.65358
32 Hf 7.60227 7.6076 5.05335 2.64767
33 O 1.25751 1.31737 3.80473 -1.3315
34 O 1.22384 1.28163 8.86786 -1.32632
35 O 1.23455 6.32032 3.77619 -1.31483
36 O 1.21565 6.29707 8.84399 -1.3296
37 O 6.37444 1.22339 3.77802 -1.3169
38 O 6.34148 1.26743 8.88933 -1.32751
39 O 6.35401 6.3667 3.78806 -1.32717
40 O 6.36921 6.31973 8.89447 -1.327
41 O 1.30615 3.84795 3.75798 -1.31912
42 O 1.28632 3.75042 8.81459 -1.32538
43 O 1.283 8.8214 3.82451 -1.32371
44 O 1.31076 8.86135 8.86594 -1.32842
45 O 6.28315 3.77243 3.81748 -1.31788
46 O 6.29347 3.77466 8.86496 -1.32435
47 O 6.3049 8.9053 3.75802 -1.32003
48 O 6.36383 8.88338 8.81768 -1.32236
49 O 1.25062 3.83357 1.31357 -1.32229
50 O 1.2618 3.81498 6.31874 -1.33042
51 O 1.28257 8.86858 1.26076 -1.32995
52 O 1.28834 8.89427 6.34104 -1.32508
53 O 6.32935 3.76029 1.29986 -1.32734
54 O 6.35147 3.84443 6.32103 -1.32653
55 O 6.37157 8.89511 1.2973 -1.3202
56 O 6.3576 8.83424 6.37826 -1.32217
57 O 1.24405 1.25888 1.2479 -1.32162
58 O 1.27828 1.23499 6.30322 -1.325
59 O 1.248 6.30405 1.31297 -1.3229
60 O 1.26589 6.30295 6.33504 -1.3272
61 O 6.28835 1.25014 1.27503 -1.31315
62 O 6.31717 1.2253 6.3229 -1.32941
63 O 6.28528 6.29801 1.2938 -1.31964
64 O 6.36926 6.35783 6.3631 -1.32162
65 O 3.84676 1.24309 1.29476 -1.32903
66 O 3.79126 1.31246 6.30451 -1.31956
67 O 3.83845 6.35261 1.29819 -1.32101
68 O 3.78762 6.3412 6.36378 -1.33139
69 O 8.90476 1.28869 1.30352 -1.32233
70 O 8.83986 1.2818 6.35548 -1.32817
71 O 8.80993 6.34502 1.28372 -1.31685
72 O 8.8241 6.37415 6.3427 -1.32568
73 O 3.82596 3.81767 1.22617 -1.33351
74 O 3.81824 3.80807 6.29333 -1.31367
75 O 3.8267 8.81934 1.31709 -1.31604
76 O 3.78976 8.87435 6.28469 -1.32544
77 O 8.86096 3.75186 1.2917 -1.32603
78 O 8.87779 3.77107 6.36291 -1.32602
79 O 8.90523 8.84409 1.22106 -1.32912
80 O 8.9126 8.87784 6.35054 -1.32722
81 O 3.84599 3.82473 3.83933 -1.31519
82 O 3.82351 3.8498 8.82692 -1.32736
83 O 3.81028 8.85953 3.77686 -1.31581
84 O 3.84354 8.81965 8.86457 -1.33437
85 O 8.87725 3.8163 3.77519 -1.32887
86 O 8.84142 3.75822 8.85669 -1.33041
87 O 8.91037 8.84277 3.83643 -1.33169
88 O 8.84473 8.81529 8.90036 -1.32175
89 O 3.77912 1.29932 3.84688 -1.32049
90 O 3.81066 1.24207 8.84576 -1.33201
91 O 3.79381 6.37168 3.78408 -1.3217
92 O 3.78864 6.34792 8.87551 -1.32431
93 O 8.88613 1.27372 3.75949 -1.32424
94 O 8.85295 1.29536 8.82156 -1.32954
95 O 8.85928 6.33131 3.78518 -1.31796
96 O 8.8292 6.33703 8.88086 -1.31466
ITEM: TIMESTEP
5
ITEM: NUMBER OF ATOMS
96
ITEM: BOX BOUNDS pp pp pp
0.0000000000000000e+00 1.0129447365724008e+01
0.0000000000000000e+00 1.0129447365724008e+01
0.0000000000000000e+00 1.0129447365724008e+01
ITEM: ATOMS id element x y z q
1 Hf 0.013901 0.00504718 -0.0130705 2.64426
2 Hf 0.00161885 0.00708772 5.06609 2.65067
3 Hf 0.00224305 5.05055 0.0140397 2.63874
4 Hf 0.00042232 5.04808 5.07704 2.64362
5 Hf 5.06589 -0.0188891 0.0126193 2.64385
6 Hf 5.06017 -0.00746194 5.05884 2.65016
7 Hf 5.08037 5.05344 -0.00745273 2.6488
8 Hf 5.07231 5.06547 5.08023 2.64333
9 Hf -0.0162876 2.54512 2.52081 2.6607
10 Hf -0.00402328 2.55078 7.5791 2.65595
11 Hf 0.00223876 7.61591 2.53212 2.65708
12 Hf -0.0205597 7.61171 7.61081 2.65023
13 Hf 5.04521 2.51827 2.53676 2.6472
14 Hf 5.06499 2.5374 7.61158 2.64949
15 Hf 5.04644 7.60788 2.53925 2.65974
16 Hf 5.06319 7.58337 7.61665 2.64504
17 Hf 2.52788 -0.00806477 2.52514 2.64798
18 Hf 2.53961 -0.011388 7.57959 2.64414
19 Hf 2.54046 5.06452 2.52387 2.64854
20 Hf 2.516 5.07213 7.58398 2.65456
21 Hf 7.61146 -0.0177104 2.52881 2.64847
22 Hf 7.61408 0.00395402 7.58504 2.65292
23 Hf 7.57658 5.05321 2.54128 2.64624
24 Hf 7.60348 5.0682 7.61546 2.64599
25 Hf 2.54517 2.54093 -0.0141915 2.63701
26 Hf 2.51812 2.53879 5.06362 2.64894
27 Hf 2.52075 7.58096 -0.0134115 2.64046
28 Hf 2.51685 7.60978 5.07868 2.64295
29 Hf 7.6124 2.51981 0.000899164 2.64552
30 Hf 7.58559 2.53963 5.05979 2.64671
31 Hf 7.60873 7.61083 -0.0109685 2.65324
32 Hf 7.60354 7.61021 5.05052 2.64728
33 O 1.25556 1.32964 3.80605 -1.33241
34 O 1.2139 1.28511 8.86893 -1.32572
35 O 1.22688 6.31782 3.7712 -1.31229
36 O 1.2032 6.28862 8.83975 -1.33149
37 O 6.38527 1.21326 3.77321 -1.31585
38 O 6.34404 1.26775 8.89572 -1.32739
39 O 6.35996 6.37532 3.7861 -1.32837
40 O 6.37825 6.31689 8.9022 -1.32741
41 O 1.31599 3.86007 3.74853 -1.31752
42 O 1.29146 3.73876 8.80327 -1.32559
43 O 1.28725 8.81171 3.8308 -1.32339
44 O 1.32183 8.86078 8.86663 -1.33013
45 O 6.27194 3.76602 3.82244 -1.31717
46 O 6.2846 3.76882 8.86557 -1.32431
47 O 6.29903 8.91559 3.74865 -1.31947
48 O 6.37173 8.88828 8.80703 -1.32143
49 O 1.24716 3.84193 1.32419 -1.32139
50 O 1.26071 3.81886 6.31558 -1.33118
51 O 1.28697 8.86997 1.25945 -1.33072
52 O 1.29381 8.90152 6.34382 -1.32379
53 O 6.32923 3.75083 1.30801 -1.32708
54 O 6.35685 3.8555 6.3187 -1.32724
55 O 6.3819 8.90267 1.3043 -1.3205
56 O 6.36422 8.82716 6.38925 -1.32164
57 O 1.23945 1.25727 1.24325 -1.32186
58 O 1.28126 1.22749 6.29672 -1.32501
59 O 1.24352 6.29769 1.32362 -1.32246
60 O 1.26559 6.29649 6.33595 -1.32781
61 O 6.27843 1.24609 1.27715 -1.31062
62 O 6.31384 1.2156 6.321 -1.33073
63 O 6.27418 6.28974 1.3005 -1.31864
64 O 6.37836 6.36431 6.37106 -1.32057
65 O 3.85788 1.23728 1.30171 -1.32872
66 O 3.7895 1.32372 6.29857 -1.31838
67 O 3.84766 6.35767 1.30556 -1.31935
68 O 3.78516 6.34385 6.372 -1.33331
69 O 8.91461 1.29363 1.31193 -1.32151
70 O 8.83428 1.28562 6.36082 -1.32818
71 O 8.79693 6.34797 1.28785 -1.31757
72 O 8.81497 6.38457 6.34571 -1.32499
73 O 3.83227 3.82186 1.21621 -1.33574
74 O 3.82313 3.81067 6.28447 -1.31221
75 O 3.83325 8.80904 1.32891 -1.31433
76 O 3.7878 8.87728 6.27362 -1.3261
77 O 8.86027 3.74084 1.29745 -1.3256
78 O 8.88133 3.76473 6.37041 -1.3265
79 O 8.91584 8.83973 1.21035 -1.3294
80 O 8.92496 8.88188 6.35549 -1.32687
81 O 3.85748 3.83132 3.84881 -1.31387
82 O 3.82939 3.86198 8.81789 -1.32707
83 O 3.81284 8.8592 3.77184 -1.31378
84 O 3.85451 8.80907 8.86513 -1.33536
85 O 8.8805 3.82057 3.77013 -1.33051
86 O 8.83626 3.74871 8.85554 -1.33091
87 O 8.92175 8.83796 3.84558 -1.33337
88 O 8.84083 8.80383 8.90922 -1.32072
89 O 3.77445 1.30726 3.85843 -1.32006
90 O 3.81335 1.2364 8.84175 -1.33476
91 O 3.79254 6.3817 3.78115 -1.32206
92 O 3.7859 6.352 8.8788 -1.32425
93 O 8.89182 1.27555 3.75059 -1.32435
94 O 8.85048 1.30195 8.81175 -1.32901
95 O 8.85829 6.33143 3.78226 -1.31633
96 O 8.82132 6.33806 8.88525 -1.31344
ITEM: TIMESTEP
6
ITEM: NUMBER OF ATOMS
96
ITEM: BOX BOUNDS pp pp pp
0.0000000000000000e+00 1.0129447365724008e+01
0.0000000000000000e+00 1.0129447365724008e+01
0.0000000000000000e+00 1.0129447365724008e+01
ITEM: ATOMS id element x y z q
1 Hf 0.0165811 0.00611597 -0.0156492 2.64359
2 Hf 0.00190101 0.00857014 5.06636 2.6507
3 Hf 0.00257936 5.04784 0.0168648 2.63787
4 Hf 0.000512651 5.04488 5.07933 2.64249
5 Hf 5.06625 -0.022592 0.0150546 2.64352
6 Hf 5.05926 -0.00890869 5.05767 2.64978
7 Hf 5.08346 5.05135 -0.00887581 2.64868
8 Hf 5.07373 5.06567 5.0832 2.643
9 Hf -0.0194424 2.54758 2.51857 2.66133
10 Hf -0.00479135 2.55428 7.5756 2.6562
11 Hf 0.00266613 7.61946 2.53208 2.6571
12 Hf -0.0246578 7.61455 7.61348 2.65035
13 Hf 5.04147 2.5155 2.53765 2.64676
14 Hf 5.06498 2.53838 7.61437 2.64926
15 Hf 5.04288 7.60989 2.54061 2.66035
16 Hf 5.06299 7.58069 7.62041 2.64457
17 Hf 2.52698 -0.00963066 2.52372 2.648
18 Hf 2.54103 -0.0135527 7.57612 2.64387
19 Hf 2.54206 5.0646 2.52233 2.64749
20 Hf 2.51284 5.07359 7.58136 2.65512
21 Hf 7.61426 -0.0211205 2.5281 2.64752
22 Hf 7.61734 0.00469589 7.58269 2.65273
23 Hf 7.57251 5.05106 2.54303 2.64633
24 Hf 7.60472 5.06894 7.619 2.64615
25 Hf 2.54761 2.54257 -0.0170167 2.63588
26 Hf 2.51539 2.54004 5.06337 2.64847
27 Hf 2.51855 7.57773 -0.0159685 2.63976
28 Hf 2.51385 7.61219 5.08138 2.64275
29 Hf 7.61532 2.51725 0.00113774 2.645
30 Hf 7.58335 2.54101 5.0588 2.6463
31 Hf 7.61098 7.61344 -0.0130648 2.65282
32 Hf 7.60475 7.61273 5.04779 2.64684
33 O 1.25381 1.34112 3.80717 -1.33338
34 O 1.20472 1.2882 8.86988 -1.32517
35 O 1.21965 6.3155 3.76677 -1.30987
36 O 1.19135 6.28049 8.83604 -1.33321
37 O 6.39563 1.2039 3.76876 -1.31474
38 O 6.34642 1.26804 8.90179 -1.32734
39 O 6.36579 6.38343 3.78464 -1.32944
40 O 6.38657 6.31414 8.90957 -1.32775
41 O 1.32537 3.87155 3.73992 -1.31589
42 O 1.29648 3.72775 8.79289 -1.32582
43 O 1.29137 8.80288 3.83671 -1.32308
44 O 1.33242 8.86017 8.8673 -1.33176
45 O 6.26163 3.75991 3.82735 -1.31644
46 O 6.27638 3.76328 8.86626 -1.32431
47 O 6.29375 8.92534 3.74013 -1.3189
48 O 6.37911 8.89289 8.79729 -1.32054
49 O 1.24406 3.84972 1.33359 -1.3206
50 O 1.25968 3.82244 6.31245 -1.33194
51 O 1.2914 8.87134 1.25822 -1.33131
52 O 1.29901 8.90815 6.34663 -1.32251
53 O 6.3293 3.74178 1.31569 -1.32702
54 O 6.36217 3.86588 6.31656 -1.32795
55 O 6.39191 8.90966 1.3105 -1.32095
56 O 6.37054 8.82047 6.39925 -1.32119
57 O 1.2356 1.25586 1.23873 -1.32208
58 O 1.28407 1.22049 6.29073 -1.32503
59 O 1.23924 6.29181 1.3332 -1.32198
60 O 1.26514 6.29062 6.33672 -1.32846
61 O 6.26936 1.24218 1.27913 -1.30823
62 O 6.31068 1.2066 6.31923 -1.33195
63 O 6.2637 6.28175 1.30683 -1.31771
64 O 6.38679 6.37037 6.37867 -1.31951
65 O 3.86792 1.23165 1.30826 -1.32833
66 O 3.78784 1.33436 6.29328 -1.31724
67 O 3.85598 6.36228 1.31222 -1.31772
68 O 3.78293 6.34645 6.37989 -1.33514
69 O 8.92372 1.29793 1.31939 -1.32064
70 O 8.82905 1.28925 6.36543 -1.32813
71 O 8.78464 6.35045 1.29168 -1.31895
72 O 8.80661 6.39435 6.34865 -1.32421
73 O 3.83797 3.8255 1.20667 -1.33775
74 O 3.8278 3.8133 6.27632 -1.31073
75 O 3.83921 8.7996 1.33967 -1.31268
76 O 3.78608 8.88023 6.26328 -1.32667
77 O 8.85952 3.73069 1.30258 -1.32524
78 O 8.88468 3.75898 6.37731 -1.32686
79 O 8.92615 8.8358 1.20043 -1.3297
80 O 8.93687 8.886 6.36032 -1.32646
81 O 3.86823 3.83769 3.85742 -1.31237
82 O 3.83478 3.87331 8.8092 -1.32684
83 O 3.81506 8.85931 3.76727 -1.31193
84 O 3.86486 8.79913 8.86581 -1.33558
85 O 8.88349 3.82457 3.76575 -1.33197
86 O 8.83148 3.73995 8.85472 -1.33127
87 O 8.93243 8.83353 3.85417 -1.33489
88 O 8.83758 8.79316 8.9174 -1.31955
89 O 3.77011 1.31466 3.86919 -1.31972
90 O 3.81573 1.23117 8.83814 -1.33737
91 O 3.79125 6.39122 3.77877 -1.32239
92 O 3.78309 6.35578 8.88213 -1.32411
93 O 8.89726 1.27726 3.74257 -1.32446
94 O 8.84816 1.30785 8.80271 -1.32846
95 O 8.85734 6.33155 3.77969 -1.31479
96 O 8.81415 6.33873 8.88945 -1.31235
ITEM: TIMESTEP
7
ITEM: NUMBER OF ATOMS
96
ITEM: BOX BOUNDS pp pp pp
0.0000000000000000e+00 1.0129447365724008e+01
0.0000000000000000e+00 1.0129447365724008e+01
0.0000000000000000e+00 1.0129447365724008e+01
ITEM: ATOMS id element x y z q
1 Hf 0.0195191 0.00732869 -0.0184956 2.64301
2 Hf 0.00220353 0.0102471 5.06666 2.65076
3 Hf 0.00290073 5.04488 0.0200207 2.63656
4 Hf 0.00061904 5.04138 5.0818 2.64131
5 Hf 5.06672 -0.0266824 0.0177343 2.64362
6 Hf 5.05826 -0.0104986 5.05636 2.64917
7 Hf 5.08687 5.0491 -0.0104201 2.64867
8 Hf 5.07528 5.06591 5.08645 2.64245
9 Hf -0.0229027 2.5503 2.5161 2.66119
10 Hf -0.00563519 2.55811 7.57175 2.65634
11 Hf 0.00313145 7.6233 2.53206 2.65669
12 Hf -0.0292139 7.61767 7.61642 2.65055
13 Hf 5.03738 2.51243 2.53866 2.64701
14 Hf 5.06495 2.53946 7.61742 2.64899
15 Hf 5.03899 7.61206 2.54211 2.66106
16 Hf 5.06283 7.57775 7.62452 2.64401
17 Hf 2.526 -0.0113582 2.52216 2.64799
18 Hf 2.5426 -0.0159116 7.57227 2.64368
19 Hf 2.54384 5.06474 2.5207 2.64483
20 Hf 2.50938 5.07519 7.57845 2.65567
21 Hf 7.61734 -0.0248535 2.52732 2.64616
22 Hf 7.62092 0.00550194 7.58011 2.65232
23 Hf 7.56799 5.04872 2.54496 2.6468
24 Hf 7.60607 5.06978 7.62289 2.64616
25 Hf 2.55026 2.54436 -0.0201527 2.63388
26 Hf 2.5124 2.54142 5.06308 2.64789
27 Hf 2.51617 7.57414 -0.0187509 2.63832
28 Hf 2.51057 7.61481 5.08433 2.64264
29 Hf 7.6185 2.51439 0.00142948 2.6459
30 Hf 7.58086 2.54252 5.05769 2.64558
31 Hf 7.61344 7.61629 -0.0153484 2.65216
32 Hf 7.60605 7.61548 5.04481 2.64606
33 O 1.25205 1.35324 3.80819 -1.33453
34 O 1.19521 1.29125 8.87082 -1.32422
35 O 1.21192 6.3131 3.76239 -1.30742
36 O 1.17856 6.27161 8.83242 -1.33485
37 O 6.40686 1.19421 3.76416 -1.31321
38 O 6.34891 1.26834 8.90829 -1.32755
39 O 6.37224 6.39204 3.78355 -1.33073
40 O 6.39515 6.31109 8.91753 -1.32805
41 O 1.33547 3.88383 3.73115 -1.31408
42 O 1.30206 3.71603 8.78222 -1.326
43 O 1.29587 8.79387 3.84295 -1.3228
44 O 1.34388 8.85943 8.86804 -1.3334
45 O 6.25102 3.75331 3.83287 -1.31547
46 O 6.26782 3.75736 8.86714 -1.3243
47 O 6.28844 8.93577 3.73147 -1.31811
48 O 6.3869 8.89779 8.78733 -1.31949
49 O 1.24096 3.85787 1.34283 -1.31937
50 O 1.25858 3.82615 6.30894 -1.33273
51 O 1.29645 8.87287 1.25694 -1.33222
52 O 1.30459 8.91494 6.34987 -1.32108
53 O 6.32957 3.73196 1.32386 -1.32667
54 O 6.36814 3.87685 6.31437 -1.32871
55 O 6.40289 8.9169 1.31656 -1.3212
56 O 6.37739 8.81333 6.40944 -1.32071
57 O 1.23213 1.2545 1.23374 -1.32206
58 O 1.28709 1.21312 6.28454 -1.32498
59 O 1.2346 6.28571 1.34281 -1.32162
60 O 1.26445 6.28466 6.33745 -1.32928
61 O 6.26005 1.23789 1.28124 -1.30693
62 O 6.30729 1.19719 6.31738 -1.33306
63 O 6.25253 6.27298 1.31361 -1.31679
64 O 6.39556 6.37676 6.38692 -1.3183
65 O 3.87805 1.22544 1.31524 -1.32781
66 O 3.78606 1.34572 6.28806 -1.31599